<?xml version="1.0"?>
<VTKFile type="PolyData" version="0.1" byte_order="LittleEndian" compressor="vtkZLibDataCompressor">
	<PolyData>
		<Piece NumberOfPoints="11745" NumberOfVerts="0" NumberOfLines="0" NumberOfStrips="0" NumberOfPolys="23486">
		<PointData Normals="Normals">
		<DataArray type="Float32" Name="Normals" NumberOfComponents="3" format="ascii">
			 0.145029  0.301332  0.942425
			-0.054857  0.001819  0.998493
			 0.101047  0.127399  0.986691
			 0.331534  0.390654  0.858764
			 0.336359  0.530347  0.778200
			 0.098421  0.276170  0.956056
			-0.152142 -0.130928  0.979648
			-0.310005 -0.290624  0.905226
			-0.211324 -0.169711  0.962570
			-0.140345  0.023327  0.989828
			 0.121195 -0.022726  0.992369
			 0.321504  0.179597  0.929720
			 0.544030  0.319165  0.775993
			 0.572673  0.505066  0.645720
			 0.469569  0.616066  0.632430
			 0.283488  0.413318  0.865334
			 0.599990  0.698574  0.389880
			 0.496615  0.623736  0.603596
			-0.018029  0.169560  0.985355
			-0.130372 -0.231737  0.964003
			-0.321797 -0.345194  0.881640
			-0.361038 -0.236297  0.902117
			-0.452198 -0.386223  0.803958
			-0.425754 -0.393888  0.814607
			-0.259508 -0.070729  0.963147
			 0.050970 -0.120833  0.991363
			 0.430069  0.132166  0.893069
			 0.682108  0.325821  0.654652
			 0.745433  0.493381  0.448225
			 0.699404  0.624891  0.346908
			 0.037213  0.192700  0.980552
			 0.144966  0.285353  0.947395
			 0.560029  0.608863  0.561831
			 0.388721  0.471024  0.791854
			 0.756514  0.649547  0.075996
			 0.736557  0.672648 -0.070911
			 0.672488  0.737493  0.062161
			 0.636647  0.741874  0.210484
			-0.201750 -0.026628  0.979075
			-0.241830 -0.367470  0.898045
			-0.403539 -0.444186  0.799910
			-0.381348 -0.258127  0.887662
			-0.447660 -0.392966  0.803230
			-0.476446 -0.439457  0.761496
			-0.497706 -0.437278  0.749051
			-0.493183 -0.446760  0.746442
			-0.033043 -0.248435  0.968085
			 0.229405 -0.027538  0.972941
			 0.436658  0.119061  0.891714
			 0.691330  0.393769  0.605813
			 0.820027  0.470979  0.325168
			 0.819201  0.572049  0.040869
			-0.113699  0.049664  0.992273
			-0.043781  0.087981  0.995160
			 0.069889  0.258040  0.963603
			 0.317796  0.466597  0.825405
			 0.544929  0.606201  0.579286
			 0.670925  0.715633  0.194241
			 0.782225  0.562087 -0.268668
			 0.717974  0.565281 -0.406167
			 0.682682  0.673953 -0.282369
			 0.680979  0.710476 -0.177460
			-0.303907 -0.153588  0.940240
			-0.143478 -0.386443  0.911085
			-0.329510 -0.454083  0.827787
			-0.418008 -0.469444  0.777747
			-0.472885 -0.454635  0.754776
			-0.393067 -0.326198  0.859706
			-0.470298 -0.430378  0.770451
			-0.503459 -0.446210  0.739883
			-0.516334 -0.441941  0.733545
			-0.519433 -0.456413  0.722410
			-0.512633 -0.470582  0.718164
			 0.160209 -0.183828  0.969815
			 0.304961 -0.042739  0.951405
			 0.527291  0.203518  0.824952
			 0.692215  0.406083  0.596603
			 0.771320  0.564745  0.293476
			 0.811125  0.580708  0.069675
			 0.735882  0.582366 -0.345438
			-0.247547 -0.126655  0.960562
			-0.129644  0.049808  0.990309
			-0.114946  0.154517  0.981281
			 0.072970  0.304365  0.949756
			 0.548012  0.639073  0.539693
			 0.527250  0.653561  0.543015
			 0.323773  0.495824  0.805810
			 0.627339  0.735374  0.256264
			 0.680917  0.698812 -0.219121
			 0.691835  0.709994 -0.131426
			 0.654421  0.470038 -0.592281
			 0.648514  0.475931 -0.594070
			 0.617031  0.519807 -0.590825
			 0.633490  0.590255 -0.500289
			 0.665601  0.536812 -0.518467
			 0.005958 -0.292551  0.956231
			-0.228095 -0.436814  0.870153
			-0.366637 -0.479239  0.797438
			-0.446737 -0.453250  0.771356
			-0.498876 -0.434371  0.749963
			-0.327273 -0.239512  0.914071
			-0.398313 -0.365439  0.841309
			-0.450250 -0.465157  0.762171
			-0.507843 -0.437261  0.742225
			-0.540160 -0.437251  0.719054
			-0.516333 -0.408884  0.752472
			-0.529466 -0.509254  0.678473
			-0.553897 -0.467091  0.689220
			 0.190320 -0.182597  0.964592
			 0.433983  0.025042  0.900573
			 0.671153  0.306332  0.675066
			 0.785947  0.501893  0.361097
			 0.796034  0.605249  0.001925
			 0.778564  0.609675 -0.148775
			 0.726662  0.621339 -0.293088
			 0.603118  0.551857 -0.575936
			 0.587620  0.508283 -0.629564
			-0.261891 -0.060629  0.963191
			-0.175620  0.116397  0.977553
			-0.043277  0.222247  0.974029
			 0.185144  0.431684  0.882820
			 0.430586  0.653358  0.622672
			 0.628188  0.734012  0.258082
			 0.601730  0.634781 -0.484741
			 0.720171  0.672626 -0.170083
			 0.653406  0.546269 -0.524071
			 0.487676  0.405800 -0.772980
			 0.531755  0.351044 -0.770717
			 0.547381  0.389365 -0.740789
			 0.502785  0.397369 -0.767663
			 0.501198  0.276347 -0.820020
			 0.614826  0.365142 -0.699043
			 0.543926  0.570193 -0.615649
			-0.032480 -0.357717  0.933265
			-0.147038 -0.409126  0.900553
			-0.302364 -0.469060  0.829794
			-0.373269 -0.477243  0.795556
			-0.450196 -0.444544  0.774406
			-0.426345 -0.445877  0.787035
			-0.485841 -0.414475  0.769525
			-0.466217 -0.430761  0.772714
			-0.507072 -0.421332  0.751903
			-0.502655 -0.406108  0.763161
			-0.368343 -0.206114  0.906554
			-0.456529 -0.268756  0.848146
			-0.474480 -0.392453  0.787940
			-0.459071 -0.485682  0.743886
			-0.502181 -0.415622  0.758335
			-0.572277 -0.427958  0.699536
			-0.551620 -0.385409  0.739713
			-0.498713 -0.395380  0.771337
			-0.502635 -0.383006  0.775025
			-0.522279 -0.366258  0.770117
			-0.548036 -0.455642  0.701461
			-0.582593 -0.476691  0.658293
			-0.585433 -0.458957  0.668301
			 0.146740 -0.198641  0.969025
			 0.470673  0.158553  0.867945
			 0.751056  0.431299  0.499896
			 0.812286  0.577135  0.084300
			 0.727255  0.596266 -0.339951
			 0.702324  0.560083 -0.439373
			 0.651492  0.583441 -0.484928
			 0.479110  0.484576 -0.731874
			 0.487574  0.451162 -0.747479
			-0.313363 -0.054495  0.948068
			-0.270246  0.022458  0.962529
			-0.150322  0.063612  0.986589
			 0.192773  0.458253  0.867665
			 0.086027  0.317336  0.944403
			 0.373875  0.599057  0.708060
			 0.526060  0.718844  0.454449
			 0.650599  0.753369  0.095685
			 0.418018  0.488556 -0.765881
			 0.500263  0.465362 -0.730189
			 0.688999  0.549964 -0.472038
			 0.697898  0.657223 -0.284599
			 0.538446  0.377651 -0.753297
			 0.602461  0.387506 -0.697768
			 0.416321  0.387402 -0.822554
			 0.408979  0.357556 -0.839577
			 0.438546  0.325163 -0.837823
			 0.438340  0.299518 -0.847435
			 0.446584  0.316539 -0.836879
			 0.401109  0.293360 -0.867785
			 0.413775  0.282129 -0.865560
			 0.379045  0.259058 -0.888377
			 0.441118  0.378271 -0.813834
			 0.383352  0.298209 -0.874135
			-0.116693 -0.304285  0.945406
			-0.285785 -0.447019  0.847644
			-0.326398 -0.511182  0.795083
			-0.373667 -0.474090  0.797253
			-0.371071 -0.460964  0.806113
			-0.432921 -0.408840  0.803386
			-0.469421 -0.406329  0.783927
			-0.493109 -0.393258  0.776010
			-0.413861 -0.145331  0.898665
			-0.551671 -0.340492  0.761397
			-0.509316 -0.272046  0.816448
			-0.584761 -0.440053  0.681475
			-0.563427 -0.393650  0.726353
			-0.571085 -0.413846  0.708938
			-0.546219 -0.368211  0.752373
			-0.538928 -0.355572  0.763626
			-0.497916 -0.378617  0.780211
			-0.498461 -0.380435  0.778977
			-0.506511 -0.370695  0.778480
			-0.499400 -0.374572  0.781214
			-0.501673 -0.376052  0.779044
			-0.521704 -0.352349  0.776965
			-0.530673 -0.345401  0.774005
			-0.591952 -0.392265  0.704075
			-0.543621 -0.405655  0.734792
			-0.588480 -0.459303  0.665381
			-0.585707 -0.440314  0.680493
			 0.172974 -0.061457  0.983007
			 0.452516  0.070067  0.888999
			 0.639215  0.167212  0.750629
			 0.771827  0.337403  0.538927
			 0.891102  0.401934  0.210679
			 0.851339  0.502394 -0.151071
			 0.755914  0.476033 -0.449429
			 0.587479  0.481752 -0.650218
			 0.536478  0.463033 -0.705543
			 0.585782  0.527286 -0.615491
			 0.411685  0.405650 -0.816066
			 0.413773  0.426585 -0.804249
			 0.388818  0.411280 -0.824421
			-0.347959 -0.135106  0.927724
			-0.216584 -0.037426  0.975546
			-0.028008  0.177747  0.983677
			 0.175103  0.427007  0.887132
			 0.301271  0.619036  0.725279
			 0.483803  0.780129  0.396654
			 0.624703  0.776800  0.079549
			 0.418447  0.300091 -0.857232
			 0.641897  0.461553 -0.612321
			 0.679960  0.630528 -0.374285
			 0.651000  0.509926 -0.562294
			 0.501257  0.283316 -0.817602
			 0.552887  0.314909 -0.771458
			 0.369237  0.366644 -0.853953
			 0.377488  0.313619 -0.871290
			 0.391715  0.288857 -0.873568
			 0.366589  0.278190 -0.887819
			 0.374721  0.264591 -0.888581
			 0.374900  0.271187 -0.886514
			 0.393980  0.258615 -0.881985
			 0.398081  0.256558 -0.880744
			 0.113357 -0.180197  0.977077
			 0.065890 -0.271622  0.960146
			-0.195067 -0.411468  0.890305
			-0.290251 -0.475523  0.830441
			-0.243787 -0.516581  0.820800
			-0.247162 -0.592744  0.766528
			-0.249236 -0.616890  0.746545
			-0.327626 -0.515874  0.791540
			-0.318188 -0.494200  0.809026
			-0.279769 -0.541542  0.792755
			-0.340138 -0.487835  0.803942
			-0.402404 -0.425572  0.810530
			-0.399923 -0.445648  0.800912
			-0.468053 -0.389763  0.793102
			-0.455976 -0.397763  0.796160
			-0.428594 -0.419288  0.800316
			-0.487089 -0.380211  0.786247
			-0.445158 -0.289926  0.847218
			-0.554792 -0.374372  0.743002
			-0.574701 -0.403664  0.711881
			-0.538558 -0.351728  0.765664
			-0.496889 -0.369136  0.785392
			-0.499244 -0.369991  0.783493
			-0.527142 -0.356427  0.771415
			-0.517491 -0.366478  0.773238
			-0.501172 -0.365357  0.784436
			-0.507644 -0.369738  0.778198
			-0.502293 -0.377534  0.777927
			-0.505583 -0.373589  0.777700
			-0.547392 -0.335371  0.766739
			-0.550074 -0.337363  0.763941
			-0.464552 -0.353227  0.812048
			-0.547717 -0.439662  0.711831
			-0.604235 -0.442693  0.662513
			-0.631347 -0.428772  0.646185
			-0.599444 -0.426997  0.677008
			-0.575379 -0.414394  0.705136
			 0.445900 -0.077161  0.891751
			 0.753292  0.039231  0.656515
			 0.848511  0.172519  0.500266
			 0.947975  0.201293  0.246626
			 0.933681  0.341481 -0.107843
			 0.866024  0.330506 -0.375190
			 0.679988  0.381019 -0.626451
			 0.549182  0.368237 -0.750200
			 0.462724  0.417368 -0.782107
			 0.436640  0.424117 -0.793392
			 0.356247  0.385570 -0.851131
			-0.356367 -0.185595  0.915728
			-0.275802 -0.014210  0.961109
			-0.129376  0.128772  0.983199
			 0.047964  0.377375  0.924818
			 0.069484  0.501993  0.862076
			 0.279988  0.704520  0.652118
			 0.368085  0.811163  0.454454
			 0.494399  0.843129  0.211429
			 0.663077  0.731603 -0.158385
			 0.421613  0.243747 -0.873401
			 0.445454  0.220687 -0.867680
			 0.571751  0.339918 -0.746698
			 0.605157  0.579507 -0.545854
			 0.585244  0.438080 -0.682331
			 0.495675  0.227549 -0.838169
			 0.334060  0.368541 -0.867515
			 0.356669  0.350460 -0.866005
			 0.360644  0.342186 -0.867666
			 0.366519  0.302813 -0.879754
			 0.414706  0.290642 -0.862291
			 0.418694  0.279249 -0.864127
			 0.438529  0.274731 -0.855696
			 0.030198 -0.337036  0.941007
			 0.383033 -0.137762  0.913404
			-0.024838 -0.458878  0.888152
			-0.083013 -0.452951  0.887662
			-0.221943 -0.637291  0.737971
			-0.119929 -0.724993  0.678234
			-0.124625 -0.700090  0.703095
			-0.172822 -0.651527  0.738678
			-0.104576 -0.778781  0.618518
			-0.261149 -0.549167  0.793862
			-0.161843 -0.631967  0.757908
			-0.273652 -0.529194  0.803162
			-0.355132 -0.448987  0.819934
			-0.431204 -0.426545  0.795061
			-0.443255 -0.420326  0.791739
			-0.469823 -0.392327  0.790788
			-0.489704 -0.371220  0.788914
			-0.563604 -0.385484  0.730584
			-0.559101 -0.363004  0.745409
			-0.558981 -0.347351  0.752919
			-0.557807 -0.340363  0.756970
			-0.534361 -0.345579  0.771384
			-0.497042 -0.368597  0.785548
			-0.504746 -0.366997  0.781374
			-0.514622 -0.368243  0.774313
			-0.513560 -0.382753  0.767956
			-0.504512 -0.380261  0.775158
			-0.581359 -0.326918  0.745081
			-0.574790 -0.327541  0.749889
			-0.416694 -0.236183  0.877829
			-0.502906 -0.273136  0.820050
			-0.559286 -0.395006  0.728814
			-0.642502 -0.381540  0.664544
			-0.657914 -0.364072  0.659243
			-0.632871 -0.384177  0.672222
			-0.573981 -0.403956  0.712296
			-0.595830 -0.378308  0.708427
			-0.562135 -0.388651  0.730038
			 0.582952 -0.142810  0.799857
			 0.775932 -0.087866  0.624667
			 0.943367  0.059578  0.326358
			 0.944318  0.118882  0.306809
			 0.978734  0.185520 -0.087537
			 0.842854  0.248777 -0.477188
			 0.682209  0.269203 -0.679795
			 0.504761  0.306298 -0.807092
			 0.431874  0.351297 -0.830708
			 0.366654  0.383042 -0.847846
			 0.335929  0.369132 -0.866541
			-0.418411 -0.101167  0.902606
			-0.132879  0.245696  0.960196
			-0.276310  0.092841  0.956574
			-0.142659  0.348268  0.926476
			 0.112826  0.630574  0.767885
			 0.157200  0.732928  0.661894
			 0.280275  0.834940  0.473626
			 0.583284  0.788887 -0.193484
			 0.466445  0.884389  0.016890
			 0.452342  0.274665 -0.848496
			 0.453095  0.218405 -0.864294
			 0.478162  0.184997 -0.858567
			 0.531491  0.273299 -0.801764
			 0.533265  0.726688 -0.433073
			 0.529739  0.401353 -0.747190
			 0.531465  0.505689 -0.679576
			 0.519142  0.295232 -0.802079
			 0.486807  0.202610 -0.849687
			 0.345792  0.368449 -0.862944
			 0.340404  0.371410 -0.863817
			 0.348235  0.387486 -0.853573
			 0.387548  0.374555 -0.842327
			 0.367453  0.379542 -0.849074
			 0.385656  0.350388 -0.853521
			 0.398128  0.318699 -0.860189
			 0.444323  0.327197 -0.833978
			 0.474675  0.302141 -0.826677
			 0.524158  0.313661 -0.791755
			 0.264694 -0.335006  0.904272
			 0.446430 -0.295048  0.844777
			 0.177873 -0.325058  0.928816
			-0.157051 -0.602390  0.782599
			-0.026031 -0.857958  0.513060
			 0.044928 -0.822754  0.566620
			 0.086594 -0.878157  0.470470
			-0.025547 -0.779724  0.625602
			-0.046344 -0.737178  0.674107
			 0.198987 -0.900889  0.385751
			-0.094196 -0.618113  0.780425
			 0.042648 -0.742108  0.668922
			-0.174275 -0.535888  0.826107
			-0.261813 -0.460518  0.848161
			-0.408509 -0.385593  0.827308
			-0.349351 -0.415132  0.840011
			-0.442155 -0.389251  0.808073
			-0.485221 -0.374334  0.790212
			-0.571200 -0.352116  0.741448
			-0.569386 -0.362360  0.737899
			-0.567964 -0.376917  0.731677
			-0.581232 -0.344531  0.737203
			-0.583427 -0.312219  0.749755
			-0.596684 -0.315081  0.738033
			-0.532288 -0.341959  0.774424
			-0.573754 -0.307087  0.759279
			-0.508643 -0.358660  0.782717
			-0.532712 -0.363235  0.764381
			-0.510251 -0.411472  0.755206
			-0.534145 -0.393014  0.748485
			-0.492035 -0.416926  0.764248
			-0.602059 -0.338303  0.723239
			-0.604452 -0.320491  0.729331
			-0.557826 -0.199021  0.805742
			-0.603709 -0.314196  0.732678
			-0.654297 -0.261664  0.709526
			-0.646526 -0.310802  0.696711
			-0.619600 -0.372729  0.690774
			-0.619841 -0.363997  0.695200
			-0.602779 -0.366629  0.708690
			-0.580160 -0.363077  0.729101
			-0.593748 -0.352907  0.723132
			 0.880564 -0.036524  0.472518
			 0.992304  0.123050  0.013868
			 0.896690  0.198934 -0.395438
			 0.771207  0.196474 -0.605506
			 0.606200  0.231148 -0.760981
			 0.472745  0.280575 -0.835338
			 0.378359  0.343563 -0.859540
			-0.343062  0.101023  0.933864
			-0.481566 -0.002560  0.876406
			-0.563400 -0.136039  0.814907
			-0.312044  0.239220  0.919458
			-0.070264  0.505902  0.859725
			 0.006441  0.677522  0.735474
			-0.015824  0.597632  0.801615
			 0.163818  0.749323  0.641622
			 0.453363  0.887559  0.081859
			 0.368480  0.882049  0.293620
			 0.518415  0.775715 -0.359878
			 0.494693  0.258668 -0.829680
			 0.504775  0.199652 -0.839846
			 0.494828  0.193715 -0.847124
			 0.542815  0.189783 -0.818128
			 0.491928  0.253837 -0.832811
			 0.499010  0.337063 -0.798359
			 0.562183  0.617082 -0.550599
			 0.522526  0.308111 -0.795006
			 0.565859  0.392106 -0.725297
			 0.365715  0.338946 -0.866815
			 0.362976  0.368137 -0.855993
			 0.349674  0.385594 -0.853841
			 0.371848  0.394940 -0.840090
			 0.375064  0.408048 -0.832361
			 0.389521  0.399693 -0.829771
			 0.421613  0.372551 -0.826709
			 0.414263  0.403121 -0.816015
			 0.431822  0.397267 -0.809758
			 0.469534  0.349001 -0.811009
			 0.508856  0.320791 -0.798848
			 0.540006  0.313974 -0.780906
			 0.551512  0.322895 -0.769138
			 0.556686  0.298239 -0.775342
			 0.612191  0.321154 -0.722553
			 0.623871  0.329409 -0.708713
			 0.626031  0.324636 -0.709011
			 0.763191 -0.060161  0.643366
			 0.258466 -0.606539  0.751868
			 0.551642 -0.367733  0.748641
			-0.047990 -0.724257  0.687858
			 0.322499 -0.845509  0.425570
			 0.438847 -0.895319  0.076276
			 0.270655 -0.936983  0.220927
			 0.165048 -0.883581  0.438228
			 0.375522 -0.909491  0.178350
			 0.316524 -0.937360  0.145494
			 0.177747 -0.858126  0.481691
			 0.612768 -0.790253 -0.004096
			-0.026025 -0.629350  0.776686
			 0.198343 -0.684948  0.701075
			 0.166554 -0.738109  0.653800
			 0.341077 -0.820181  0.459315
			 0.167705 -0.642182  0.747982
			-0.000895 -0.570937  0.820993
			-0.104070 -0.511317  0.853067
			-0.269015 -0.440581  0.856457
			-0.414641 -0.382900  0.825506
			-0.453100 -0.368582  0.811694
			-0.359777 -0.376933  0.853511
			-0.479179 -0.362723  0.799262
			-0.587068 -0.360085  0.725045
			-0.576710 -0.375948  0.725306
			-0.581635 -0.373974  0.722388
			-0.615913 -0.295950  0.730113
			-0.609042 -0.301372  0.733650
			-0.611020 -0.314371  0.726516
			-0.527064 -0.386623  0.756787
			-0.588921 -0.344072  0.731291
			-0.596488 -0.305588  0.742171
			-0.490520 -0.342513  0.801296
			-0.530552 -0.334345  0.778928
			-0.554549 -0.338521  0.760184
			-0.553127 -0.362309  0.750188
			-0.537896 -0.438020  0.720282
			-0.563104 -0.380644  0.733501
			-0.521840 -0.455148  0.721473
			-0.602356 -0.351027  0.716901
			-0.598403 -0.352245  0.719609
			-0.604350 -0.327916  0.726108
			-0.601673 -0.344496  0.720633
			-0.594541 -0.159774  0.788031
			-0.607347 -0.211265  0.765831
			-0.624177 -0.316981  0.714091
			-0.606903 -0.348518  0.714286
			-0.587037 -0.362863  0.723683
			-0.597389 -0.349340  0.721865
			-0.606174 -0.343570  0.717295
			 0.986668  0.083945  0.139422
			 0.945655  0.147897 -0.289592
			 0.836321  0.148113 -0.527854
			 0.665317  0.098356 -0.740054
			 0.556942  0.170153 -0.812935
			 0.476785  0.200041 -0.855955
			 0.409779  0.299959 -0.861456
			-0.441982  0.073472  0.894010
			-0.223592  0.400248  0.888712
			-0.305583  0.267502  0.913817
			-0.210131  0.426848  0.879572
			-0.114145  0.576519  0.809071
			 0.008188  0.733540  0.679597
			 0.221360  0.860981  0.457943
			 0.494129  0.854457 -0.160434
			 0.382145  0.914359  0.133836
			 0.572207  0.235500 -0.785569
			 0.494911  0.239956 -0.835155
			 0.539755  0.218306 -0.813024
			 0.636896  0.218850 -0.739235
			 0.619525  0.220743 -0.753301
			 0.569681  0.775572 -0.271941
			 0.575898  0.433908 -0.692867
			 0.582600  0.561245 -0.587861
			 0.566417  0.264968 -0.780362
			 0.571632  0.329596 -0.751401
			 0.412526  0.259924 -0.873076
			 0.407409  0.303108 -0.861477
			 0.402877  0.361365 -0.840896
			 0.409495  0.407679 -0.816157
			 0.405070  0.423527 -0.810274
			 0.469928  0.379526 -0.796949
			 0.432079  0.419490 -0.798333
			 0.484814  0.382624 -0.786482
			 0.519852  0.340309 -0.783546
			 0.575441  0.317555 -0.753676
			 0.618571  0.314513 -0.720036
			 0.679448  0.287995 -0.674840
			 0.689350  0.322865 -0.648502
			 0.702656  0.328721 -0.631044
			 0.648822  0.260723 -0.714880
			 0.701487  0.308143 -0.642623
			 0.726764  0.335082 -0.599611
			 0.719193 -0.378498  0.582667
			 0.964739 -0.109668  0.239273
			 0.977094  0.030976  0.210542
			 0.763382 -0.574559  0.295179
			 0.599953 -0.800021 -0.004701
			 0.761660 -0.500350 -0.411734
			 0.797160 -0.533405 -0.282871
			 0.391214 -0.907930  0.150379
			 0.532053 -0.785101 -0.317075
			 0.477163 -0.853779 -0.208272
			 0.569950 -0.780464 -0.256971
			 0.655361 -0.715280 -0.242643
			 0.493453 -0.859992  0.130070
			 0.778420 -0.440766 -0.446978
			 0.521242 -0.744721  0.416769
			 0.529378 -0.687123  0.497616
			 0.660987 -0.747876  0.061465
			 0.246766 -0.579165  0.776965
			 0.693025 -0.528649  0.490149
			-0.055059 -0.446549  0.893063
			 0.249913 -0.450695  0.856982
			-0.226042 -0.411731  0.882827
			-0.443120 -0.354555  0.823368
			-0.285999 -0.358488  0.888645
			-0.369880 -0.301302  0.878866
			-0.426948 -0.320818  0.845453
			-0.593638 -0.366211  0.716578
			-0.591703 -0.373307  0.714514
			-0.596738 -0.365462  0.714382
			-0.621985 -0.299768  0.723377
			-0.636167 -0.311686  0.705793
			-0.633107 -0.323516  0.703216
			-0.625443 -0.309122  0.716425
			-0.617174 -0.332128  0.713294
			-0.620469 -0.310194  0.720276
			-0.578391 -0.415376  0.702087
			-0.620255 -0.398758  0.675482
			-0.627887 -0.339405  0.700402
			-0.473235 -0.308471  0.825163
			-0.522894 -0.292928  0.800484
			-0.561853 -0.298079  0.771667
			-0.574591 -0.331954  0.748099
			-0.577474 -0.457085  0.676459
			-0.584837 -0.425976  0.690297
			-0.579771 -0.392574  0.713969
			-0.585571 -0.341774  0.735049
			-0.592016 -0.365270  0.718398
			-0.599126 -0.366744  0.711721
			-0.612085 -0.356823  0.705712
			-0.552994 -0.089745  0.828338
			-0.524717 -0.038858  0.850390
			-0.508445  0.028532  0.860621
			-0.596392 -0.139412  0.790494
			-0.633275 -0.243332  0.734678
			-0.618897 -0.329377  0.713076
			-0.630967 -0.307231  0.712383
			-0.641378 -0.269912  0.718179
			-0.613267 -0.337874  0.713964
			-0.614103 -0.343842  0.710388
			-0.623235 -0.337758  0.705335
			 0.981355 -0.013365 -0.191738
			 0.890456 -0.009123 -0.454979
			 0.735980 -0.100914 -0.669441
			 0.703024 -0.115302 -0.701756
			 0.579834  0.066723 -0.811998
			 0.498872  0.158874 -0.851989
			-0.388239  0.259739  0.884198
			-0.212182  0.523244  0.825345
			-0.113177  0.689684  0.715211
			 0.130452  0.874665  0.466845
			 0.371816  0.903843  0.211709
			 0.603637  0.229139 -0.763621
			 0.735067  0.258839 -0.626641
			 0.709893  0.255483 -0.656339
			 0.703667  0.254297 -0.663465
			 0.671429  0.235494 -0.702656
			 0.551208  0.820913 -0.149240
			 0.555944  0.696395 -0.453827
			 0.592120  0.310958 -0.743437
			 0.590903  0.412966 -0.693031
			 0.584646  0.467920 -0.662751
			 0.544856  0.602895 -0.582795
			 0.472309  0.294609 -0.830740
			 0.429470  0.366774 -0.825247
			 0.468009  0.362881 -0.805782
			 0.418575  0.437654 -0.795772
			 0.455272  0.442014 -0.772885
			 0.523217  0.366179 -0.769517
			 0.470329  0.389781 -0.791745
			 0.430572  0.454316 -0.779875
			 0.469591  0.406356 -0.783811
			 0.443368  0.438233 -0.781906
			 0.567051  0.338562 -0.750885
			 0.522885  0.345435 -0.779272
			 0.558618  0.327727 -0.761932
			 0.600663  0.312199 -0.736027
			 0.629927  0.297004 -0.717622
			 0.730103  0.286809 -0.620233
			 0.663694  0.262476 -0.700440
			 0.696457  0.234696 -0.678134
			 0.719964  0.239725 -0.651293
			 0.746958  0.305999 -0.590270
			 0.758632  0.321097 -0.566899
			 0.765939  0.301559 -0.567803
			 0.776365  0.314065 -0.546462
			 0.930394 -0.347467 -0.116762
			 0.863478 -0.289053 -0.413346
			 0.596777 -0.774868 -0.208413
			 0.562555 -0.615125 -0.552407
			 0.675800 -0.455330 -0.579628
			 0.600979 -0.316910 -0.733752
			 0.650331 -0.474841 -0.592955
			 0.701341 -0.379740 -0.603256
			 0.709753 -0.628755 -0.317676
			 0.786711 -0.596818  0.157779
			 0.819826 -0.567442 -0.076774
			 0.885160 -0.460498  0.066583
			 0.806815 -0.489463 -0.330870
			 0.720533 -0.379095  0.580620
			 0.962100 -0.222288  0.157963
			 0.977781 -0.200032 -0.062693
			 0.017042 -0.406666  0.913418
			-0.163526 -0.379159  0.910767
			 0.402105 -0.419623  0.813774
			 0.665664 -0.346610  0.660873
			 0.640076 -0.344799  0.686598
			 0.209781 -0.451135  0.867450
			-0.265722 -0.305597  0.914332
			-0.327107 -0.249485  0.911460
			-0.403228 -0.207539  0.891254
			-0.445502 -0.268952  0.853928
			-0.606355 -0.365380  0.706280
			-0.614562 -0.346466  0.708714
			-0.623341 -0.312089  0.716971
			-0.623607 -0.300440  0.721700
			-0.623686 -0.302445  0.720793
			-0.639987 -0.363144  0.677158
			-0.626133 -0.329174  0.706825
			-0.622253 -0.357568  0.696381
			-0.627406 -0.341503  0.699813
			-0.624703 -0.314755  0.714616
			-0.623450 -0.330886  0.708395
			-0.609384 -0.428766  0.666941
			-0.630732 -0.401697  0.663941
			-0.497221 -0.252505  0.830068
			-0.528811 -0.260618  0.807736
			-0.553703 -0.249727  0.794386
			-0.584590 -0.257276  0.769457
			-0.590513 -0.285102  0.754991
			-0.590980 -0.307438  0.745805
			-0.603652 -0.402798  0.688010
			-0.592679 -0.367082  0.716926
			-0.592024 -0.306791  0.745243
			-0.584631 -0.322023  0.744653
			-0.613210 -0.361919  0.702131
			-0.628772 -0.349772  0.694482
			-0.511802  0.062428  0.856832
			-0.620949 -0.088967  0.778786
			-0.660381 -0.173599  0.730589
			-0.624035 -0.328070  0.709190
			-0.634280 -0.310849  0.707857
			-0.649166 -0.274058  0.709560
			-0.668382 -0.194534  0.717929
			-0.640903 -0.333480  0.691401
			-0.636291 -0.321969  0.701049
			-0.641320 -0.335905  0.689838
			 0.636647 -0.122232 -0.761406
			 0.572171 -0.012920 -0.820032
			 0.609079 -0.074426 -0.789610
			 0.599761  0.106633 -0.793043
			-0.341791  0.372883  0.862634
			-0.190482  0.623818  0.758002
			 0.037460  0.831555  0.554178
			 0.218183  0.913740  0.342747
			 0.471429  0.877163 -0.091322
			 0.670442  0.299127 -0.678992
			 0.782354  0.290456 -0.550960
			 0.770171  0.287319 -0.569460
			 0.758290  0.282527 -0.587515
			 0.739127  0.267163 -0.618316
			 0.455311  0.822636 -0.340532
			 0.608877  0.360157 -0.706792
			 0.618591  0.436969 -0.652995
			 0.439784  0.785115 -0.436102
			 0.397432  0.747667 -0.532016
			 0.571660  0.571568 -0.588654
			 0.578861  0.245308 -0.777653
			 0.589224  0.352129 -0.727200
			 0.433020  0.490672 -0.756131
			 0.507427  0.470518 -0.721894
			 0.458551  0.503038 -0.732587
			 0.566632  0.339444 -0.750804
			 0.435387  0.483785 -0.759204
			 0.461173  0.470425 -0.752343
			 0.495599  0.415731 -0.762594
			 0.472712  0.447114 -0.759363
			 0.622810  0.289606 -0.726798
			 0.601924  0.283629 -0.746486
			 0.525647  0.402411 -0.749507
			 0.560925  0.333149 -0.757875
			 0.608715  0.265888 -0.747509
			 0.750377  0.256463 -0.609230
			 0.653111  0.248870 -0.715199
			 0.680887  0.224188 -0.697233
			 0.699329  0.204741 -0.684850
			 0.718948  0.205983 -0.663841
			 0.768200  0.292973 -0.569241
			 0.759260  0.295720 -0.579719
			 0.738600 -0.215759 -0.638685
			 0.906305 -0.330006 -0.264020
			 0.837857 -0.255701 -0.482300
			 0.922718 -0.094053 -0.373825
			 0.955867 -0.056033  0.288407
			 0.999781  0.009584  0.018627
			 0.953692  0.073573 -0.291649
			 0.896009  0.084405 -0.435939
			 0.120208 -0.426628  0.896403
			-0.078052 -0.361645  0.929043
			 0.022655 -0.384089  0.923018
			-0.177623 -0.325495  0.928710
			 0.496134 -0.464929  0.733275
			 0.905321 -0.178028  0.385616
			 0.764128 -0.391780  0.512460
			 0.929133 -0.189146  0.317703
			 0.982924 -0.052537  0.176351
			 0.288366 -0.437850  0.851547
			-0.223173 -0.234303  0.946201
			-0.319934 -0.177551  0.930655
			-0.390474 -0.131565  0.911165
			-0.454278 -0.127856  0.881637
			-0.465713 -0.208700  0.859974
			-0.623936 -0.347482  0.699972
			-0.632473 -0.346042  0.692989
			-0.617096 -0.313854  0.721587
			-0.615202 -0.335519  0.713410
			-0.629575 -0.298448  0.717332
			-0.625330 -0.296386  0.721885
			-0.619733 -0.395262  0.678011
			-0.624662 -0.379333  0.682572
			-0.601223 -0.375233  0.705500
			-0.595002 -0.356796  0.720187
			-0.645877 -0.331407  0.687759
			-0.633597 -0.322381  0.703296
			-0.646099 -0.319690  0.693076
			-0.634307 -0.309362  0.708484
			-0.533107 -0.226496  0.815167
			-0.521482 -0.172306  0.835684
			-0.556179 -0.204614  0.805480
			-0.593830 -0.205346  0.777945
			-0.609963 -0.247018  0.752946
			-0.601635 -0.281668  0.747461
			-0.593849 -0.367465  0.715761
			-0.575304 -0.332749  0.747197
			-0.616230 -0.271910  0.739139
			-0.609493 -0.309026  0.730083
			-0.564664 -0.349843  0.747506
			-0.561856 -0.321081  0.762381
			-0.558393 -0.313113  0.768217
			-0.652785 -0.328467  0.682628
			-0.507782  0.130144  0.851599
			-0.587862  0.089448  0.804001
			-0.677009 -0.024161  0.735578
			-0.697695 -0.049484  0.714684
			-0.649398 -0.286915  0.704245
			-0.671846 -0.207794  0.710946
			-0.691654 -0.062271  0.719539
			-0.657237 -0.322530  0.681186
			-0.673903 -0.321269  0.665313
			-0.663427 -0.339556  0.666758
			-0.649523 -0.330072  0.684962
			 0.713326  0.047072 -0.699250
			-0.376472  0.394372  0.838295
			-0.169150  0.717398  0.675816
			-0.038513  0.873248  0.485751
			 0.334050  0.942532 -0.006632
			 0.161915  0.973731  0.160097
			 0.643226  0.352081 -0.679926
			 0.673804  0.373380 -0.637633
			 0.730591  0.317646 -0.604431
			 0.691103  0.375643 -0.617470
			 0.775362  0.298173 -0.556692
			 0.771479  0.298751 -0.561754
			 0.754903  0.301939 -0.582198
			 0.284384  0.956263 -0.068457
			 0.648536  0.434895 -0.624714
			 0.196810  0.913913 -0.355005
			 0.170841  0.982004 -0.080502
			 0.036623  0.983976 -0.174498
			 0.377605  0.835198 -0.399824
			 0.648145  0.445775 -0.617409
			 0.529055  0.642935 -0.553837
			 0.593970  0.505027 -0.626217
			 0.680448  0.164958 -0.713988
			 0.764942  0.167343 -0.621981
			 0.780023  0.265226 -0.566762
			 0.666294  0.422155 -0.614685
			 0.552301  0.453549 -0.699469
			 0.444601  0.519655 -0.729581
			 0.519726  0.487508 -0.701585
			 0.495971  0.512325 -0.701096
			 0.483975  0.527003 -0.698596
			 0.458918  0.499682 -0.734651
			 0.494597  0.497701 -0.712508
			 0.512445  0.484064 -0.709283
			 0.512992  0.456058 -0.727221
			 0.557384  0.435083 -0.707125
			 0.642120  0.264949 -0.719363
			 0.602578  0.388720 -0.696991
			 0.630477  0.307857 -0.712547
			 0.663968  0.314416 -0.678446
			 0.741279  0.240604 -0.626590
			 0.673891  0.247825 -0.696027
			 0.673262  0.226211 -0.703951
			 0.678143  0.201925 -0.706645
			 0.679723  0.181913 -0.710553
			 0.696091  0.215521 -0.684841
			 0.733680  0.269449 -0.623788
			 0.737643  0.298590 -0.605579
			 0.708080  0.280182 -0.648168
			 0.698087  0.259424 -0.667363
			 0.816929 -0.024376 -0.576223