<?xml version="1.0"?>
<VTKFile type="PolyData" version="0.1" byte_order="LittleEndian" compressor="vtkZLibDataCompressor">
	<PolyData>
		<Piece NumberOfPoints="11469" NumberOfVerts="0" NumberOfLines="0" NumberOfStrips="0" NumberOfPolys="22934">
		<PointData Normals="Normals">
		<DataArray type="Float32" Name="Normals" NumberOfComponents="3" format="ascii">
			 0.201638 -0.947300  0.248928
			 0.043022 -0.998780 -0.024237
			 0.184304 -0.979500  0.081309
			 0.080021 -0.972619  0.218195
			 0.215263 -0.881551  0.420155
			 0.335201 -0.823504  0.457691
			 0.320621 -0.904055  0.282641
			-0.035075 -0.972678 -0.229493
			 0.123991 -0.986411 -0.107797
			-0.085116 -0.996130  0.021929
			-0.134544 -0.981437 -0.136671
			 0.278968 -0.957916  0.067628
			 0.083661 -0.911579  0.402523
			-0.097874 -0.973924  0.204676
			 0.294677 -0.780601  0.551206
			 0.425893 -0.726756  0.538926
			 0.422594 -0.799335  0.427174
			 0.405689 -0.871691  0.274901
			-0.162276 -0.947950 -0.273966
			 0.116366 -0.968151 -0.221683
			-0.028173 -0.945939 -0.323118
			-0.158768 -0.912624 -0.376709
			 0.254998 -0.959520 -0.119575
			-0.236299 -0.971516  0.017857
			-0.255595 -0.949942 -0.179670
			 0.351423 -0.932621  0.081971
			 0.127921 -0.888764  0.440153
			-0.124569 -0.961397  0.245354
			 0.264805 -0.740130  0.618131
			 0.390895 -0.680106  0.620207
			 0.322477 -0.660651  0.677900
			 0.489997 -0.784605  0.379866
			 0.456753 -0.602529  0.654474
			 0.465882 -0.705628  0.533894
			 0.479491 -0.842944  0.243996
			-0.246474 -0.902596 -0.352945
			 0.283641 -0.934248 -0.216168
			 0.126107 -0.941994 -0.311037
			-0.016079 -0.927713 -0.372947
			-0.303914 -0.851217 -0.427862
			-0.198743 -0.895766 -0.397623
			 0.383354 -0.921291 -0.065283
			 0.397015 -0.903773 -0.159915
			-0.266055 -0.959494  0.092658
			-0.300480 -0.953220 -0.032905
			-0.311469 -0.930187 -0.194265
			-0.303814 -0.894623 -0.327639
			 0.478503 -0.873569  0.088944
			-0.073489 -0.945091  0.318438
			 0.128163 -0.855076  0.502413
			-0.230474 -0.956118  0.180886
			 0.234877 -0.611928  0.755233
			 0.148560 -0.746384  0.648722
			 0.398776 -0.561917  0.724725
			 0.341117 -0.536517  0.771873
			 0.542350 -0.821103  0.177897
			 0.516556 -0.834303  0.192637
			 0.474795 -0.796689  0.373974
			 0.515668 -0.574225  0.635887
			 0.443845 -0.462366  0.767606
			 0.511357 -0.469887  0.719528
			 0.471441 -0.438259  0.765292
			 0.519922 -0.643242  0.562068
			 0.296829 -0.913866 -0.277023
			 0.430990 -0.878115 -0.207753
			 0.176658 -0.916625 -0.358594
			-0.105238 -0.911259 -0.398161
			 0.190856 -0.920345 -0.341378
			 0.014047 -0.924293 -0.381425
			-0.340128 -0.858955 -0.382765
			-0.426225 -0.763579 -0.485055
			-0.329627 -0.819446 -0.468886
			-0.398103 -0.767906 -0.501831
			-0.295542 -0.839081 -0.456725
			-0.382278 -0.758688 -0.527500
			-0.188332 -0.880969 -0.434079
			 0.507188 -0.861573 -0.021275
			 0.495116 -0.860700 -0.118560
			-0.317931 -0.941517  0.111650
			-0.339178 -0.938894  0.058627
			-0.331283 -0.942959 -0.032870
			-0.321567 -0.923312 -0.209976
			-0.016120 -0.883503  0.468148
			-0.182076 -0.926673  0.328825
			-0.223516 -0.943540  0.244485
			-0.299551 -0.938510  0.171664
			-0.322493 -0.936629  0.136837
			 0.133590 -0.610405  0.780743
			 0.071412 -0.726538  0.683405
			 0.265840 -0.488272  0.831216
			 0.167456 -0.492680  0.853946
			 0.190660 -0.467894  0.862974
			-0.049266 -0.857516  0.512092
			 0.417369 -0.402487  0.814744
			 0.318771 -0.398341  0.860064
			 0.532524 -0.845692  0.034967
			 0.517701 -0.838889  0.168081
			 0.545424 -0.837449  0.034528
			 0.545351 -0.801543  0.245196
			 0.513117 -0.743198  0.429381
			 0.591482 -0.490856  0.639695
			 0.593221 -0.414405  0.690187
			 0.466480 -0.298313  0.832710
			 0.562340 -0.337838  0.754744
			 0.496200 -0.313227  0.809738
			 0.586231 -0.681613  0.437878
			 0.594974 -0.525614  0.608058
			 0.359066 -0.886326 -0.292401
			 0.527269 -0.833615 -0.164542
			 0.473539 -0.851649 -0.224623
			 0.358466 -0.883409 -0.301813
			 0.302581 -0.894083 -0.330245
			 0.176195 -0.920756 -0.348086
			-0.021181 -0.931171 -0.363967
			-0.371780 -0.880932 -0.292810
			-0.399404 -0.825706 -0.398353
			-0.467048 -0.655438 -0.593521
			-0.436716 -0.784868 -0.439615
			-0.417140 -0.718156 -0.556997
			-0.420891 -0.653472 -0.629147
			-0.340471 -0.805903 -0.484356
			-0.509287 -0.641142 -0.574076
			-0.477982 -0.705207 -0.523656
			-0.137197 -0.890208 -0.434404
			-0.261664 -0.849712 -0.457734
			 0.525486 -0.847748 -0.072029
			-0.349451 -0.930936  0.106028
			-0.333817 -0.939259  0.079745
			-0.341548 -0.938267  0.054770
			-0.337676 -0.940723  0.031861
			-0.368301 -0.928537 -0.046609
			-0.366517 -0.921303 -0.129870
			-0.282320 -0.938985  0.196477
			-0.202176 -0.917618  0.342201
			-0.333100 -0.933438  0.133185
			 0.058521 -0.565639  0.822574
			-0.010602 -0.704642  0.709484
			-0.087763 -0.840835  0.534130
			-0.121309 -0.828179  0.547177
			 0.218854 -0.341671  0.913983
			 0.119538 -0.449677  0.885156
			 0.181832 -0.314083  0.931820
			 0.405946 -0.283746  0.868732
			 0.447841 -0.248272  0.858953
			 0.213661 -0.245280  0.945614
			 0.303157 -0.291272  0.907335
			 0.566225 -0.821224  0.070573
			 0.552873 -0.829445 -0.079704
			 0.567851 -0.819826 -0.073689
			 0.597068 -0.773958  0.210950
			 0.626869 -0.335135  0.703363
			 0.619565 -0.258244  0.741248
			 0.496709 -0.191077  0.846623
			 0.482741 -0.176757  0.857740
			 0.549507 -0.227629  0.803883
			 0.613122 -0.667666  0.422260
			 0.622102 -0.588789  0.516059
			 0.604123 -0.415923  0.679738
			 0.461559 -0.845810 -0.267525
			 0.567359 -0.805306 -0.172007
			 0.528951 -0.821360 -0.213493
			 0.421956 -0.854032 -0.304274
			 0.316700 -0.884054 -0.343728
			 0.097741 -0.923325 -0.371372
			 0.262931 -0.889066 -0.374739
			 0.149034 -0.892594 -0.425517
			-0.001899 -0.901677 -0.432407
			-0.415158 -0.884862 -0.211337
			-0.444599 -0.842452 -0.304313
			-0.484037 -0.541427 -0.687434
			-0.554774 -0.535041 -0.637148
			-0.479675 -0.830703 -0.282567
			-0.487404 -0.780835 -0.390812
			-0.457510 -0.713061 -0.531252
			-0.426829 -0.632871 -0.645981
			-0.443147 -0.649699 -0.617666
			-0.439388 -0.571913 -0.692715
			-0.383602 -0.791739 -0.475394
			-0.574842 -0.592407 -0.564456
			-0.500918 -0.721105 -0.478633
			-0.569191 -0.643967 -0.511203
			-0.021271 -0.885168 -0.464784
			-0.140213 -0.880740 -0.452368
			-0.279780 -0.855104 -0.436487
			-0.320437 -0.942071  0.099110
			-0.302001 -0.949991  0.079444
			-0.301715 -0.950913  0.068803
			-0.306607 -0.949802  0.062195
			-0.327371 -0.942493  0.067346
			-0.319090 -0.947004  0.036941
			-0.341607 -0.939467 -0.026585
			-0.426526 -0.892199 -0.148512
			-0.290829 -0.949835  0.115034
			-0.261617 -0.946108  0.190884
			-0.304880 -0.943848  0.127276
			-0.243553 -0.888491  0.388930
			-0.264816 -0.924757  0.273306
			-0.061836 -0.682859  0.727928
			 0.031685 -0.526001  0.849894
			-0.147192 -0.799175  0.582799
			 0.182096 -0.205099  0.961653
			 0.141709 -0.349478  0.926166
			 0.085324 -0.374133  0.923442
			 0.164782 -0.172111  0.971198
			 0.174509 -0.159138  0.971711
			 0.153506 -0.241441  0.958197
			 0.372036 -0.165423  0.913359
			 0.315342 -0.172838  0.933106
			 0.427794 -0.158360  0.889896
			 0.232577 -0.145529  0.961628
			 0.190247 -0.128941  0.973232
			 0.600034 -0.799321  0.032338
			 0.584991 -0.805243 -0.096800
			 0.632570 -0.731547  0.254352
			 0.644359 -0.259220  0.719449
			 0.626155 -0.198899  0.753903
			 0.640271 -0.216917  0.736885
			 0.576367 -0.167210  0.799901
			 0.517469 -0.139671  0.844226
			 0.493065 -0.097717  0.864487
			 0.443687 -0.118741  0.888281
			 0.653580 -0.643655  0.398173
			 0.639078 -0.494826  0.588835
			 0.641361 -0.350803  0.682344
			 0.510235 -0.831702 -0.218935
			 0.611807 -0.788111 -0.067622
			 0.581020 -0.796175 -0.168883
			 0.369436 -0.862796 -0.345108
			 0.451018 -0.842936 -0.293328
			 0.257986 -0.901984 -0.346219
			 0.050210 -0.910567 -0.410300
			-0.455550 -0.499600 -0.736800
			-0.544570 -0.463681 -0.698888
			-0.508187 -0.445063 -0.737336
			-0.645303 -0.489529 -0.586469
			-0.607148 -0.426349 -0.670521
			-0.483912 -0.861298 -0.154903
			-0.531443 -0.802313 -0.271776
			-0.500221 -0.749484 -0.433650
			-0.409468 -0.645972 -0.644249
			-0.439433 -0.609825 -0.659554
			-0.439755 -0.568128 -0.695591
			-0.416146 -0.810149 -0.412894
			-0.649628 -0.568581 -0.504677
			-0.608878 -0.658211 -0.442748
			-0.536739 -0.748503 -0.389428
			-0.122566 -0.936233 -0.329311
			-0.313774 -0.888190 -0.335655
			-0.288383 -0.955741  0.058260
			-0.322598 -0.946154  0.026893
			-0.406971 -0.911543 -0.058854
			-0.304643 -0.929910  0.206060
			-0.302536 -0.946238  0.114482
			-0.272999 -0.902544  0.332996
			-0.198697 -0.824010  0.530591
			-0.136101 -0.732242  0.667307
			-0.044076 -0.608423  0.792388
			 0.003912 -0.502370  0.864644
			 0.160224 -0.114792  0.980383
			 0.051784 -0.383926  0.921911
			 0.118926 -0.212136  0.969977
			 0.087684 -0.252088  0.963724
			 0.140546 -0.094605  0.985544
			 0.162142 -0.141313  0.976596
			 0.147906 -0.064128  0.986920
			 0.354260 -0.113555  0.928227
			 0.273455 -0.101540  0.956510
			 0.164665 -0.086325  0.982565
			 0.210811 -0.090108  0.973365
			 0.637861 -0.758674  0.132466
			 0.667162 -0.269383  0.694498
			 0.685674 -0.171575  0.707399
			 0.673518 -0.166629  0.720145
			 0.651255 -0.132127  0.747268
			 0.602379 -0.119121  0.789271
			 0.550918 -0.096676  0.828941
			 0.454014 -0.094717  0.885946
			 0.516393 -0.047064  0.855058
			 0.492921 -0.046998  0.868804
			 0.500507  0.010902  0.865664
			 0.361477 -0.100688  0.926929
			 0.712818 -0.627072  0.314119
			 0.707671 -0.535003  0.461490
			 0.673028 -0.434377  0.598624
			 0.400650 -0.875338 -0.270672
			 0.425244 -0.889181 -0.168890
			 0.495061 -0.853927 -0.160386
			 0.598083 -0.783957 -0.166460
			 0.560618 -0.819469 -0.119073
			 0.661767 -0.728934  0.175266
			 0.644409 -0.756833 -0.109276
			 0.696789 -0.710222  0.100344
			 0.699375 -0.714735 -0.005357
			 0.637003 -0.756627 -0.147453
			 0.117812 -0.969440 -0.215189
			 0.314355 -0.930675 -0.187148
			-0.397836 -0.519717 -0.756056
			-0.446404 -0.441075 -0.778574
			-0.558612 -0.411760 -0.720004
			-0.485704 -0.414213 -0.769753
			-0.529323 -0.414093 -0.740503
			-0.729330 -0.395228 -0.558455
			-0.722855 -0.490182 -0.487035
			-0.575062 -0.369451 -0.729938
			-0.646832 -0.350561 -0.677286
			-0.451267 -0.892351 -0.008171
			-0.510617 -0.850715 -0.124711
			-0.581291 -0.780106 -0.231378
			-0.599485 -0.728804 -0.330852
			-0.450332 -0.692578 -0.563504
			-0.606947 -0.680527 -0.410485
			-0.425492 -0.546897 -0.721014
			-0.373158 -0.550981 -0.746440
			-0.406098 -0.855165 -0.322145
			-0.480305 -0.815321 -0.323356
			-0.732569 -0.576283 -0.362271
			-0.637744 -0.706447 -0.306945
			-0.558376 -0.776976 -0.290732
			-0.053466 -0.983418 -0.173294
			-0.231231 -0.945064 -0.231054
			-0.362434 -0.896114 -0.256167
			-0.376928 -0.924262  0.060536
			-0.358265 -0.922584  0.143126
			-0.327193 -0.910486  0.252904
			-0.215327 -0.809448  0.546287
			-0.284047 -0.867564  0.408227
			-0.106850 -0.660240  0.743415
			-0.036642 -0.524883  0.850386
			 0.017059 -0.356547  0.934122
			 0.123247 -0.075289  0.989516
			 0.141070 -0.102945  0.984633
			 0.116334 -0.113027  0.986758
			 0.064373 -0.172571  0.982891
			 0.114965 -0.056900  0.991739
			 0.139788 -0.046462  0.989091
			 0.133382 -0.034926  0.990449
			 0.122879 -0.052337  0.991041
			 0.284378 -0.085143  0.954924
			 0.220025 -0.067367  0.973165
			 0.148634 -0.073308  0.986171
			 0.708863 -0.324122  0.626465
			 0.718126 -0.244839  0.651421
			 0.714574 -0.183397  0.675092
			 0.715179 -0.113479  0.689667
			 0.694683 -0.101430  0.712129
			 0.665072 -0.061986  0.744202
			 0.623311 -0.074797  0.778388
			 0.569434 -0.043996  0.820859
			 0.417170 -0.068928  0.906211
			 0.428360 -0.011055  0.903540
			 0.473467  0.033954  0.880157
			 0.543032  0.004674  0.839699
			 0.549782  0.067255  0.832596
			 0.486182  0.068883  0.871139
			 0.449250  0.103921  0.887342
			 0.439915  0.116076  0.890506
			 0.261407 -0.056827  0.963554
			 0.331409 -0.072971  0.940661
			 0.727832 -0.506895  0.461863
			 0.752481 -0.402531  0.521288
			 0.392696 -0.917212 -0.067170
			 0.487533 -0.869080 -0.083734
			 0.662620 -0.729225 -0.170776
			 0.617557 -0.774684 -0.135972
			 0.688411 -0.710681 -0.144995
			 0.535713 -0.844313 -0.012136
			 0.625829 -0.773133 -0.102972
			 0.625611 -0.779653 -0.027406
			 0.719820 -0.633363  0.284095
			 0.727010 -0.685912 -0.031333
			 0.757372 -0.652887  0.011209
			 0.768426 -0.494039  0.406752
			 0.765860 -0.609016  0.206296
			 0.826737 -0.530869  0.186236
			 0.712687 -0.694054 -0.101819
			 0.069171 -0.990633 -0.117732
			 0.239390 -0.967818 -0.077593
			-0.363372 -0.469656 -0.804602
			-0.374479 -0.440953 -0.815675
			-0.421722 -0.418554 -0.804340
			-0.525223 -0.400947 -0.750588
			-0.465972 -0.398107 -0.790178
			-0.796175 -0.460557 -0.392419
			-0.834093 -0.376808 -0.402870
			-0.699714 -0.286832 -0.654314
			-0.848739 -0.292213 -0.440742
			-0.514529 -0.374684 -0.771279
			-0.613367 -0.321841 -0.721248
			-0.541100 -0.322641 -0.776604
			-0.446875 -0.893431  0.045642
			-0.520822 -0.853228 -0.027326
			-0.603753 -0.787723 -0.122373
			-0.671805 -0.718833 -0.178765
			-0.687339 -0.664957 -0.292229
			-0.714397 -0.589210 -0.377449
			-0.540333 -0.609684 -0.579936
			-0.635958 -0.548133 -0.543238
			-0.504813 -0.499700 -0.703892
			-0.413202 -0.430069 -0.802686
			-0.417971 -0.870233 -0.260759
			-0.449412 -0.858078 -0.248457
			-0.515848 -0.835321 -0.190108
			-0.750565 -0.643580 -0.149856
			-0.838441 -0.502580 -0.210784
			-0.612512 -0.771743 -0.171003
			-0.107306 -0.984881 -0.136000
			-0.290865 -0.943891 -0.156418
			-0.413861 -0.894649 -0.168292
			-0.400465 -0.894558  0.198479
			-0.190831 -0.754153  0.628361
			-0.372491 -0.851241  0.369648
			-0.253773 -0.791489  0.556008
			-0.134643 -0.626112  0.768020
			-0.098155 -0.497723  0.861764
			-0.041050 -0.310497  0.949688
			-0.007284 -0.174834  0.984571
			 0.093690 -0.060783  0.993744
			 0.104024 -0.050572  0.993288
			 0.088614 -0.050462  0.994787
			 0.127405 -0.026543  0.991496
			-0.008570 -0.053750  0.998518
			 0.105769 -0.042783  0.993470
			 0.114164 -0.020179  0.993257
			 0.145453 -0.050897  0.988055
			 0.221837  0.017851  0.974920
			 0.212882 -0.036572  0.976393
			 0.737399 -0.298494  0.605924
			 0.740059 -0.197081  0.643017
			 0.762388 -0.164640  0.625826
			 0.741503 -0.055648  0.668638
			 0.724124 -0.027412  0.689125
			 0.690443 -0.043076  0.722103
			 0.628487 -0.010336  0.777751
			 0.657505  0.012898  0.753340
			 0.601380  0.027046  0.798505
			 0.337431 -0.019984  0.941138
			 0.373197  0.050863  0.926357
			 0.611509  0.083479  0.786822
			 0.578024  0.107043  0.808968
			 0.512014  0.123306  0.850081
			 0.353982  0.122235  0.927230
			 0.344049  0.175181  0.922465
			 0.360961  0.180631  0.914921
			 0.470123  0.173536  0.865373
			 0.417136  0.196333  0.887384
			 0.272591  0.008020  0.962097
			 0.750511 -0.338013  0.567874
			 0.332803 -0.939038  0.086315
			 0.465024 -0.885047  0.021072
			 0.503443 -0.864005 -0.006339
			 0.747111 -0.646996 -0.152385
			 0.675769 -0.731453 -0.091175
			 0.816766 -0.552114 -0.167520
			 0.761873 -0.643001 -0.078095
			 0.779667 -0.609984 -0.141564
			 0.513610 -0.854788  0.074445
			 0.580511 -0.806601  0.111362
			 0.687885 -0.725597 -0.017987
			 0.674205 -0.734389  0.078240
			 0.825239 -0.507962  0.246892
			 0.792918 -0.603799  0.081905
			 0.815142 -0.415908  0.403192
			 0.777604 -0.278151  0.563882
			 0.840274 -0.306959  0.446895
			 0.798120 -0.602069 -0.022744
			 0.083109 -0.996448 -0.013557
			-0.346674 -0.427045 -0.835135
			-0.365917 -0.423178 -0.828870
			-0.379202 -0.403646 -0.832632
			-0.452823 -0.337773 -0.825143
			-0.873262 -0.408530 -0.265551
			-0.888299 -0.344162 -0.304101
			-0.599340 -0.246402 -0.761628
			-0.680742 -0.187247 -0.708187
			-0.808055 -0.164420 -0.565697
			-0.902579 -0.286697 -0.321180
			-0.915035 -0.242107 -0.322638
			-0.919592 -0.173782 -0.352349
			-0.519143 -0.258481 -0.814664
			-0.514572 -0.850261  0.110775
			-0.615178 -0.788210 -0.016774
			-0.741021 -0.666435 -0.082172
			-0.770812 -0.608678 -0.188041
			-0.799549 -0.532953 -0.276916
			-0.723204 -0.479640 -0.496912
			-0.813181 -0.461078 -0.355167
			-0.600632 -0.438850 -0.668320
			-0.525629 -0.360978 -0.770331
			-0.380708 -0.385795 -0.840371
			-0.446052 -0.324618 -0.834063
			-0.471565 -0.874917 -0.110209
			-0.497315 -0.867367 -0.018768
			-0.556517 -0.830464 -0.024872
			-0.676374 -0.736321  0.018731
			-0.779731 -0.626038 -0.009793
			-0.848766 -0.528767 -0.001509
			-0.903304 -0.419375 -0.090366
			-0.156815 -0.985911 -0.058208
			-0.321303 -0.945024 -0.060786
			-0.428883 -0.902964 -0.026734
			-0.475864 -0.843378  0.249533
			-0.222955 -0.635293  0.739388
			-0.337791 -0.752770  0.565009
			-0.484501 -0.758448  0.435907
			-0.227883 -0.490336  0.841214
			-0.155184 -0.355970  0.921522
			-0.148240 -0.158888  0.976104
			-0.111265 -0.019764  0.993594
			 0.090969 -0.057797  0.994175
			 0.084951 -0.057371  0.994732
			 0.079149 -0.037773  0.996147
			 0.113175  0.009716  0.993528
			 0.074798  0.004924  0.997187
			-0.005735  0.008803  0.999945
			 0.070429  0.013288  0.997428
			-0.143690  0.061989  0.987679
			 0.086966 -0.036754  0.995533
			 0.060116 -0.007149  0.998166
			 0.166359  0.018230  0.985897
			 0.255610  0.074964  0.963869
			 0.159570  0.089673  0.983105
			 0.190695  0.127278  0.973363
			 0.826515 -0.257011  0.500818
			 0.766726 -0.111218  0.632267
			 0.808161  0.032667  0.588055
			 0.782773  0.065288  0.618873
			 0.740213  0.029684  0.671717
			 0.715958  0.013587  0.698011
			 0.768782  0.105728  0.630710
			 0.746673  0.056379  0.662798
			 0.679264  0.033627  0.733123
			 0.644676  0.062753  0.761876
			 0.669190  0.086293  0.738063
			 0.644128  0.095755  0.758901
			 0.618382  0.091170  0.780571
			 0.553885  0.122009  0.823605
			 0.509041  0.156566  0.846383
			 0.257354  0.167584  0.951675
			 0.211715  0.220438  0.952147
			 0.260622  0.219776  0.940093
			 0.376084  0.252104  0.891630
			 0.315530  0.265901  0.910899
			 0.437161  0.219082  0.872292
			 0.432360  0.234551  0.870661
			 0.392122  0.284686  0.874754
			 0.145648 -0.979490  0.139232
			 0.263428 -0.949267  0.171747
			 0.470254 -0.869862  0.149001
			 0.408439 -0.889419  0.205210
			 0.829786 -0.542419 -0.131285
			 0.842528 -0.538412 -0.016076
			 0.910670 -0.411732 -0.034008
			 0.903449 -0.413536 -0.112995
			 0.904445 -0.393996 -0.163543
			 0.866943 -0.478632 -0.139000
			 0.723707 -0.689718  0.023179
			 0.803498 -0.594330  0.034092
			 0.864004 -0.500555 -0.054231
			 0.523716 -0.833862  0.174342
			 0.557835 -0.795624  0.236226
			 0.652148 -0.724985  0.221585
			 0.730999 -0.668749  0.135705
			 0.841540 -0.428063  0.329503
			 0.869798 -0.441843  0.219605
			-0.121762 -0.990477  0.064253
			-0.358943 -0.384339 -0.850555
			-0.383887 -0.356724 -0.851692
			-0.427779 -0.288463 -0.856618
			-0.479462 -0.240611 -0.843933
			-0.928056 -0.340014 -0.151996
			-0.924550 -0.298813 -0.236473
			-0.607124 -0.152960 -0.779746
			-0.526201 -0.158771 -0.835407
			-0.693346 -0.062819 -0.717861
			-0.900836 -0.052778 -0.430940
			-0.812777 -0.030440 -0.581780
			-0.936897 -0.233684 -0.260029
			-0.968084 -0.116327 -0.221996
			-0.952442 -0.060132 -0.298728
			-0.538183 -0.188922 -0.821382
			-0.585440 -0.768260  0.258913
			-0.633995 -0.770915  0.061162
			-0.774988 -0.631762  0.016435
			-0.877506 -0.479498  0.008024
			-0.848681 -0.515427 -0.118637
			-0.886091 -0.411023 -0.214249
			-0.664098 -0.351029 -0.660116
			-0.769885 -0.389193 -0.505773
			-0.900620 -0.314116 -0.300357
			-0.879562 -0.290640 -0.376696
			-0.538167 -0.263409 -0.800620
			-0.408732 -0.320619 -0.854483
			-0.479164 -0.233134 -0.846198
			-0.473066 -0.879708  0.048195
			-0.474591 -0.868371  0.143859
			-0.506241 -0.851044  0.139446
			-0.560489 -0.811821  0.163704
			-0.783898 -0.609246  0.119677
			-0.678091 -0.688583  0.256993
			-0.852600 -0.489060  0.184104
			-0.911753 -0.401671  0.085831
			-0.936297 -0.351066 -0.010067
			-0.323185 -0.944825  0.053456
			-0.411027 -0.904941  0.110173
			-0.372197 -0.645746  0.666695
			-0.345611 -0.487087  0.802059
			-0.503220 -0.578696  0.641779
			-0.611549 -0.651337  0.449186
			-0.286646 -0.281289  0.915811
			-0.296771 -0.065202  0.952720
			-0.243203  0.012035  0.969901
			-0.243179  0.091685  0.965638
			 0.055867 -0.021807  0.998200
			 0.027739  0.014002  0.999517
			 0.091850  0.072053  0.993163
			 0.019824  0.057684  0.998138
			-0.058313  0.057280  0.996654
			-0.047584  0.032529  0.998337
			-0.317204  0.106881  0.942315
			-0.192251  0.084154  0.977731
			 0.028062 -0.011091  0.999545
			 0.033780 -0.007190  0.999403
			 0.119923  0.150940  0.981242
			 0.156361  0.181551  0.970871
			 0.894367 -0.242186  0.376103
			 0.879375 -0.068488  0.471179
			 0.820917 -0.094218  0.563221
			 0.867150  0.082567  0.491155
			 0.820408  0.143028  0.553601
			 0.706853  0.088800  0.701764
			 0.817427  0.167993  0.550991
			 0.773018  0.122957  0.622354
			 0.740575  0.114585  0.662132
			 0.663294  0.096950  0.742052
			 0.698197  0.112942  0.706941
			 0.678393  0.105615  0.727068
			 0.672286  0.098379  0.733725
			 0.676553  0.083639  0.731628
			 0.636450  0.080073  0.767150
			 0.564539  0.116778  0.817104
			 0.496072  0.157581  0.853862
			 0.143309  0.239068  0.960369
			 0.204420  0.308096  0.929134
			 0.188241  0.322905  0.927522
			 0.257095  0.298224  0.919219
			 0.350281  0.314250  0.882355
			 0.300516  0.339523  0.891299
			 0.458028  0.182248  0.870055
			 0.386466  0.263346  0.883907
			 0.401519  0.176925  0.898599
			 0.359828  0.229767  0.904285
			 0.346200  0.320889  0.881576
			 0.343820  0.282178  0.895636
			-0.011555 -0.993295  0.115031
			 0.068887 -0.987183  0.143960
			 0.289733 -0.920034  0.263803
			 0.492633 -0.838587  0.232560
			 0.434982 -0.859612  0.268064
			 0.923318 -0.357899  0.139255
			 0.954732 -0.190253  0.228672
			 0.959809 -0.278130  0.037553
			 0.966906 -0.245462 -0.069577
			 0.958038 -0.263169 -0.113601
			 0.922887 -0.375390 -0.085802
			 0.811487 -0.556680  0.177755
			 0.897095 -0.439786  0.042523
			 0.915730 -0.399665 -0.041304
			 0.511259 -0.806427  0.297136
			 0.594223 -0.741438  0.311717
			 0.674198 -0.674500  0.300844
			 0.724186 -0.640045  0.256703
			-0.171765 -0.981425  0.085451
			-0.546157 -0.145972 -0.824867
			-0.960907 -0.276635 -0.011437
			-0.969171 -0.216325 -0.117942
			-0.573379 -0.039244 -0.818350
			-0.514177 -0.141034 -0.846009
			-0.501506 -0.025722 -0.864771
			-0.486808 -0.046044 -0.872295
			-0.620930  0.076565 -0.780118
			-0.753296  0.068914 -0.654062
			-0.871100  0.067629 -0.486427
			-0.944376  0.029167 -0.327572
			-0.996807 -0.054297 -0.058548
			-0.981556  0.012445 -0.190768
			-0.548708 -0.090876 -0.831061
			-0.582858 -0.064579 -0.810004
			-0.740298 -0.572170  0.352961
			-0.702847 -0.682481  0.200564
			-0.850247 -0.494942  0.179199
			-0.911842 -0.323051  0.253342
			-0.922176 -0.385565  0.030502
			-0.917274 -0.386320 -0.096770
			-0.967896 -0.239914 -0.074952
			-0.950041 -0.260373 -0.172125
			-0.763192 -0.226831 -0.605050
			-0.634586 -0.239180 -0.734910
			-0.834559 -0.246652 -0.492619
			-0.957515 -0.144640 -0.249487
			-0.931814 -0.126541 -0.340162
			-0.890702 -0.113837 -0.440103
			-0.573907 -0.157091 -0.803712
			-0.435104 -0.875177  0.211539
			-0.450904 -0.837386  0.308982
			-0.498142 -0.819087  0.284518
			-0.537263 -0.767508  0.349684
			-0.781903 -0.566022  0.261239
			-0.621376 -0.659320  0.423307
			-0.733093 -0.560065  0.385877
			-0.902659 -0.331715  0.274176
			-0.815268 -0.464671  0.345571
			-0.951104 -0.288594  0.110064
			-0.295979 -0.946586  0.127950
			-0.329774 -0.912253  0.242990
			-0.514482 -0.359223  0.778632
			-0.424091 -0.257857  0.868134
			-0.630083 -0.441247  0.638981
			-0.402771 -0.074413  0.912271
			-0.393411  0.075602  0.916249
			-0.028236  0.029409  0.999169
			-0.074556  0.051838  0.995869
			 0.076628  0.152613  0.985311
			-0.118455  0.083282  0.989461
			-0.004260  0.109763  0.993949
			-0.047799  0.028328  0.998455
			-0.166930  0.057461  0.984293
			-0.462280  0.108115  0.880118
			-0.425944  0.102481  0.898927
			-0.331523  0.085802  0.939537
			 0.074377  0.234528  0.969260
			 0.933084 -0.026107  0.358711
			 0.938719  0.060401  0.339351
			 0.874924  0.155153  0.458732
			 0.847056  0.202631  0.491362
			 0.847780  0.230310  0.477730
			 0.852107  0.215163  0.477093
			 0.821096  0.147995  0.551270
			 0.725939  0.118916  0.677401
			 0.776436  0.109190  0.620665
			 0.726738  0.095129  0.680295
			 0.693784  0.107442  0.712123
			 0.711623  0.084579  0.697452
			 0.707194  0.098372  0.700143
			 0.643229  0.103676  0.758623
			 0.570672  0.128571  0.811050
			 0.508294  0.162472  0.845718
			 0.005791  0.284965  0.958520
			 0.089371  0.315568  0.944685
			 0.161926  0.353547  0.921295
			 0.236912  0.360039  0.902355
			 0.197985  0.410301  0.890199
			 0.197835  0.419218  0.886069
			 0.159430  0.444711  0.881371
			 0.095386  0.485578  0.868974
			 0.281612  0.313327  0.906930
			 0.227570  0.381681  0.895841
			 0.485496  0.184877  0.854467
			 0.448238  0.154621  0.880440
			 0.377887  0.145023  0.914423
			 0.292200  0.186261  0.938044
			 0.302361  0.250523  0.919683
			 0.108482 -0.969202  0.221084
			-0.143760 -0.980028  0.137400
			-0.068940 -0.981844  0.176718
			 0.173742 -0.933116  0.314815
			 0.338854 -0.876172  0.342784
			 0.141869 -0.955818  0.257458
			 0.433874 -0.836949  0.333571
			 0.984278 -0.098501  0.146608
			 0.989970 -0.140861 -0.010844
			 0.994362 -0.105376 -0.011816
			 0.968569 -0.235112 -0.081221
			 0.988856 -0.132391 -0.068097
			 0.956642 -0.289490 -0.032121
			 0.782408 -0.561219  0.269945
			 0.849604 -0.462716  0.253116
			 0.899763 -0.401566  0.170796
			 0.954873 -0.286652  0.077769
			 0.523122 -0.778610  0.346569
			 0.595363 -0.729261  0.337226
			 0.657276 -0.684449  0.315463
			 0.716126 -0.630647  0.299080
			 0.741092 -0.600104  0.301094
			-0.642091 -0.068026 -0.763605
			-0.649165 -0.010781 -0.760571
			-0.977409 -0.210468 -0.019342
			-0.981752 -0.179036  0.064109
			-0.991104 -0.131303 -0.021742
			-0.514476  0.086689 -0.853112
			-0.466730  0.078517 -0.880908
			-0.507642  0.030973 -0.861011
			-0.672729  0.152955 -0.723906
			-0.557558  0.177946 -0.810842
			-0.779567  0.156002 -0.606580
			-0.871789  0.133653 -0.471297
			-0.932294  0.092165 -0.349762
			-0.968933  0.063624 -0.239000
			-0.995780 -0.082183  0.040854
			-0.994979  0.041939  0.090873
			-0.997192  0.073575 -0.013996
			-0.989391  0.092853 -0.111734
			-0.511733  0.117218 -0.851110
			-0.612955  0.056975 -0.788061
			-0.715117  0.082131 -0.694163
			-0.764910 -0.479544  0.430058
			-0.849651 -0.253043  0.462668
			-0.834962 -0.025242  0.549728
			-0.807006 -0.034899  0.589512
			-0.879155 -0.163093  0.447757
			-0.937038 -0.285757  0.200757
			-0.971716 -0.223991  0.074802
			-0.992441 -0.121649  0.016179
			-0.995397 -0.066363 -0.069137
			-0.985659 -0.094506 -0.139804
			-0.703761 -0.146537 -0.695160
			-0.822548 -0.088635 -0.561746
			-0.967917 -0.006797 -0.251177
			-0.941920  0.004748 -0.335805
			-0.901029 -0.009105 -0.433663
			-0.725613 -0.070828 -0.684448
			-0.371175 -0.857802  0.355535
			-0.399410 -0.806447  0.436022
			-0.469448 -0.779416  0.414884
			-0.520808 -0.717386  0.462727
			-0.600895 -0.610029  0.516517
			-0.707247 -0.543927  0.451604
			-0.767106 -0.470850  0.435717
			-0.836530 -0.345230  0.425482
			-0.903705 -0.174368  0.391041
			-0.956491 -0.173592  0.234502
			-0.226109 -0.957854  0.177176
			-0.232699 -0.939488  0.251422
			-0.256486 -0.921275  0.292349
			-0.304439 -0.890218  0.338865
			-0.530236 -0.094382  0.842581
			-0.663573 -0.203296  0.719960
			-0.508954  0.072170  0.857763
			-0.205056  0.081221  0.975375
			 0.009961  0.218998  0.975674
			 0.021298  0.265602  0.963848
			-0.268892  0.143581  0.952408
			-0.078946  0.192959  0.978026
			-0.192245  0.174342  0.965736
			-0.295688  0.067369  0.952906
			-0.615870  0.083820  0.783377
			-0.536738  0.096810  0.838177
			-0.474731  0.088954  0.875624
			-0.424626  0.083514  0.901509
			-0.011907  0.314203  0.949281
			-0.052556  0.313143  0.948251
			 0.987097 -0.020705  0.158780
			 0.935681  0.101846  0.337830
			 0.877024  0.206301  0.433900
			 0.859491  0.264760  0.437237
			 0.866296  0.274745  0.417189
			 0.863858  0.189590  0.466697
			 0.880723  0.251836  0.401131
			 0.815357  0.124751  0.565358
			 0.752558  0.105686  0.649990
			 0.764275  0.150315  0.627128
			 0.754706  0.155672  0.637326
			 0.671626  0.144075  0.726747
			 0.589176  0.183809  0.786820
			 0.525150  0.205267  0.825883
			-0.102945  0.378622  0.919809
			-0.008065  0.406916  0.913430
			-0.098058  0.445786  0.889752
			 0.070837  0.486637  0.870728
			 0.128096  0.512031  0.849362
			 0.106052  0.447830  0.887807
			 0.127025  0.564408  0.815665
			 0.068468  0.577785  0.813312
			-0.030786  0.654408  0.755514
			-0.035872  0.648450  0.760412
			 0.229595  0.264890  0.936546
			 0.161167  0.339141  0.926827
			 0.545789  0.257641  0.797331
			 0.512528  0.197455  0.835660
			 0.461608  0.173581  0.869935
			 0.363092  0.153318  0.919053
			 0.212411  0.235537  0.948369
			 0.265980  0.200724  0.942849
			 0.195521  0.243853  0.949899
			 0.006532 -0.973349  0.229236
			-0.142596 -0.965532  0.217749
			 0.231641 -0.906207  0.353738
			 0.314243 -0.873667  0.371427
			 0.111687 -0.924892  0.363456
			 0.020056 -0.947225  0.319943
			 0.441390 -0.816543  0.372064
			 0.985583  0.003896  0.169148
			 0.998712 -0.049796  0.009757
			 0.988751 -0.140247 -0.051983
			 0.997909 -0.001372 -0.064622
			 0.984602 -0.174112  0.015611
			 0.814652 -0.503639  0.287560
			 0.878417 -0.398836  0.263273
			 0.912141 -0.336069  0.234644