<?xml version="1.0"?>
<VTKFile type="PolyData" version="0.1" byte_order="LittleEndian" compressor="vtkZLibDataCompressor">
	<PolyData>
		<Piece NumberOfPoints="6918" NumberOfVerts="0" NumberOfLines="0" NumberOfStrips="0" NumberOfPolys="13832">
		<PointData Normals="Normals">
		<DataArray type="Float32" Name="Normals" NumberOfComponents="3" format="ascii">
			 0.654756 -0.650632  0.384672
			 0.602279 -0.784273  0.148915
			 0.791372 -0.508942  0.338686
			 0.349504 -0.894531  0.278679
			 0.559136 -0.682465  0.470753
			 0.736250 -0.402115  0.544280
			 0.619158 -0.780495 -0.086432
			 0.837920 -0.545015  0.029129
			 0.239394 -0.970879 -0.009176
			 0.168512 -0.943855 -0.284150
			 0.834241 -0.310427  0.455717
			 0.894107 -0.404110  0.193048
			 0.323402 -0.837644  0.440185
			 0.088324 -0.973281  0.211951
			-0.042742 -0.997979 -0.047031
			 0.559796 -0.600140  0.571367
			 0.613094 -0.441207  0.655326
			 0.784742 -0.213722  0.581809
			 0.699341 -0.296558  0.650365
			 0.498050 -0.737022 -0.456886
			 0.805997 -0.453323 -0.380613
			 0.037799 -0.912766 -0.406730
			 0.907670 -0.388440 -0.158904
			-0.056300 -0.907581 -0.416085
			-0.284388 -0.640826 -0.713068
			 0.921783 -0.301977  0.243160
			 0.852306 -0.164960  0.496350
			 0.075856 -0.959612  0.270906
			 0.430538 -0.655530  0.620417
			 0.255869 -0.835314  0.486603
			-0.177434 -0.983336 -0.039592
			-0.298979 -0.900471 -0.315854
			-0.218210 -0.843787 -0.490314
			 0.503661 -0.497217  0.706471
			 0.799611 -0.042076  0.599043
			 0.772389 -0.076039  0.630582
			 0.592724 -0.323903  0.737404
			 0.715180 -0.159974  0.680387
			 0.384018 -0.500983 -0.775594
			-0.056295 -0.677534 -0.733334
			 0.377055 -0.414128 -0.828449
			 0.725719 -0.395534 -0.562926
			 0.955636 -0.293865 -0.020076
			 0.910497 -0.295624 -0.289141
			-0.091893 -0.467146 -0.879392
			-0.373320 -0.676589 -0.634711
			-0.108857 -0.483205 -0.868713
			-0.416114 -0.556101 -0.719445
			-0.328994 -0.544610 -0.771468
			 0.944639 -0.184851  0.271085
			 0.893043 -0.056798  0.446372
			 0.816814  0.041708  0.575391
			 0.139216 -0.906989  0.397480
			-0.067755 -0.991865  0.107764
			 0.319402 -0.718967  0.617307
			-0.284071 -0.938764 -0.195004
			-0.384339 -0.786150 -0.483996
			 0.346218 -0.619234  0.704757
			 0.449194 -0.443916  0.775347
			 0.772519  0.128831  0.621785
			 0.735404  0.037111  0.676612
			 0.637848 -0.116023  0.761373
			 0.506369 -0.250968  0.824988
			 0.320875 -0.470905 -0.821759
			 0.670935 -0.424362 -0.608082
			 0.988404 -0.151525 -0.009920
			 0.972359 -0.159705 -0.170329
			 0.999009 -0.038607  0.022125
			 0.882302 -0.302909 -0.360263
			-0.035067 -0.563821 -0.825152
			-0.485007 -0.565884 -0.666741
			-0.466308 -0.514216 -0.719819
			-0.441239 -0.539532 -0.717087
			-0.255572 -0.582738 -0.771427
			-0.383253 -0.560417 -0.734200
			 0.972171 -0.003864  0.234241
			 0.887644  0.105783  0.448216
			 0.825226  0.179576  0.535495
			 0.223809 -0.818284  0.529454
			 0.047628 -0.963341  0.264018
			-0.205870 -0.977710 -0.041248
			-0.390020 -0.779612 -0.489989
			-0.480056 -0.829919 -0.284218
			-0.449941 -0.785759 -0.424425
			 0.222683 -0.655482  0.721634
			 0.198561 -0.759722  0.619190
			 0.336426 -0.447560  0.828558
			 0.729252  0.165705  0.663877
			 0.740432  0.254707  0.622001
			 0.754753  0.246248  0.608038
			 0.646702  0.022541  0.762410
			 0.342844 -0.293340  0.892418
			 0.540712 -0.090978  0.836274
			 0.354399 -0.523782 -0.774631
			 0.647838 -0.431902 -0.627508
			 0.999837 -0.000721 -0.018026
			 0.978269  0.128092  0.163040
			 0.943192  0.132460  0.304703
			 0.958919 -0.187311 -0.213048
			 0.836337 -0.281032 -0.470704
			 0.145915 -0.574438 -0.805438
			-0.102136 -0.634151 -0.766434
			-0.555970 -0.659406 -0.506044
			-0.589227 -0.582494 -0.559922
			-0.550558 -0.500373 -0.668216
			-0.510769 -0.519721 -0.684840
			-0.441169 -0.572864 -0.690794
			-0.326538 -0.614556 -0.718119
			 0.906902  0.196641  0.372642
			 0.815520  0.231162  0.530557
			 0.091526 -0.891490  0.443699
			-0.081895 -0.983494  0.161348
			-0.319030 -0.946124 -0.055398
			-0.563427 -0.801335 -0.201029
			-0.594235 -0.675823 -0.436059
			 0.006257 -0.817452  0.575962
			 0.020878 -0.706923  0.706982
			 0.168226 -0.534059  0.828541
			 0.131964 -0.410069  0.902457
			 0.669371  0.185770  0.719327
			 0.697904  0.293264  0.653396
			 0.709423  0.337246  0.618858
			 0.761050  0.293822  0.578335
			 0.571254  0.156865  0.805644
			 0.445890 -0.015741  0.894949
			 0.220617 -0.132267  0.966351
			 0.102092 -0.232617  0.967195
			 0.435304 -0.496166 -0.751219
			 0.667286 -0.416599 -0.617393
			 0.954310  0.212012  0.210576
			 0.978234 -0.055611 -0.199916
			 0.992451  0.066145  0.103272
			 0.935087 -0.204306 -0.289607
			 0.325700 -0.618282 -0.715295
			 0.009310 -0.795159 -0.606329
			-0.245023 -0.714546 -0.655277
			-0.613282 -0.540503 -0.575970
			-0.566814 -0.502276 -0.653024
			-0.484358 -0.603747 -0.633157
			-0.535778 -0.553525 -0.637614
			-0.391782 -0.680251 -0.619488
			 0.870338  0.252455  0.422822
			-0.082053 -0.948823  0.304964
			-0.192538 -0.938609  0.286256
			-0.441189 -0.895284  0.061789
			-0.527509 -0.826308  0.197357
			-0.650927 -0.661036 -0.373263
			-0.643631 -0.757961 -0.105993
			-0.228893 -0.779225  0.583452
			-0.285005 -0.855062  0.433176
			-0.047696 -0.587416  0.807879
			-0.119034 -0.489823  0.863658
			-0.013783 -0.313176  0.949595
			 0.609513  0.290177  0.737761
			 0.634812  0.344703  0.691515
			 0.762734  0.356457  0.539606
			 0.752055  0.353388  0.556354
			 0.641059  0.365595  0.674822
			 0.688967  0.348434  0.635546
			 0.809083  0.316189  0.495388
			 0.405379  0.215109  0.888479
			 0.480772  0.277607  0.831741
			 0.235821  0.093779  0.967261
			 0.024707  0.012583  0.999616
			-0.056303 -0.087056  0.994611
			 0.852279 -0.354971 -0.384208
			 0.630855 -0.500547 -0.592853
			 0.870504  0.312948  0.379850
			 0.912307  0.276189  0.302350
			 0.980612 -0.169577 -0.098202
			 0.989897 -0.128292 -0.060375
			 0.927340  0.212336  0.308147
			 0.985980  0.082355  0.145124
			 0.563637 -0.578563 -0.589557
			 0.358802 -0.752235 -0.552634
			 0.161072 -0.843785 -0.511941
			-0.237934 -0.849252 -0.471337
			 0.005712 -0.894413 -0.447205
			-0.673484 -0.613947 -0.411689
			-0.641710 -0.536096 -0.548460
			-0.591876 -0.529014 -0.608134
			-0.428773 -0.732556 -0.528693
			-0.483569 -0.665084 -0.569056
			-0.516453 -0.628361 -0.581755
			-0.464031 -0.810199  0.358124
			-0.572425 -0.805845  0.151469
			-0.686741 -0.683202 -0.248237
			-0.241743 -0.686922  0.685346
			-0.349415 -0.703197  0.619211
			-0.132242 -0.264720  0.955215
			-0.238437 -0.484236  0.841821
			 0.565067  0.353003  0.745713
			 0.823447  0.340594  0.453797
			 0.829820  0.335995  0.445540
			 0.834269  0.304989  0.459321
			 0.730162  0.328336  0.599215
			 0.520066  0.408711  0.749991
			 0.604466  0.373026  0.703898
			 0.653291  0.347575  0.672609
			 0.153899  0.182638  0.971060
			 0.240366  0.179860  0.953873
			 0.393608  0.297519  0.869802
			-0.081652  0.085040  0.993026
			-0.156488 -0.040787  0.986837
			 0.782543 -0.370154 -0.500612
			 0.920094 -0.251715 -0.300111
			 0.783339 -0.363630 -0.504137
			 0.991332 -0.061457 -0.116123
			 0.965967  0.167657  0.196975
			 0.911213  0.243467  0.332288
			 0.997827  0.020357 -0.062670
			 0.641887 -0.578545 -0.503257
			 0.469412 -0.736842 -0.486535
			 0.234459 -0.846754 -0.477533
			-0.055691 -0.952865 -0.298240
			-0.343736 -0.869185 -0.355476
			-0.180025 -0.965035 -0.190520
			 0.164800 -0.927613 -0.335223
			-0.657705 -0.577325 -0.483859
			-0.567562 -0.624573 -0.536453
			-0.397801 -0.810797 -0.429375
			-0.432851 -0.765026 -0.476838
			-0.444887 -0.758942 -0.475481
			-0.464324 -0.748336  0.473705
			-0.660453 -0.747956  0.066067
			-0.697594 -0.632039 -0.337475
			-0.742500 -0.667028 -0.061379
			-0.226625 -0.219448  0.948938
			-0.418148 -0.559531  0.715596
			-0.366411 -0.335974  0.867678
			 0.417363  0.380079  0.825438
			 0.856904  0.263609  0.442973
			 0.755092  0.282806  0.591487
			 0.634327  0.310724  0.707870
			 0.325582  0.447094  0.833129
			 0.328105  0.450958  0.830051
			 0.461693  0.410579  0.786298
			 0.545426  0.366031  0.754011
			-0.051258  0.133795  0.989683
			 0.130117  0.215376  0.967824
			 0.167541  0.317033  0.933499
			-0.205721  0.056331  0.976988
			-0.174774  0.142147  0.974294
			-0.286474 -0.094599  0.953406
			 0.913583 -0.167144 -0.370714
			 0.955311 -0.107302 -0.275440
			 0.959288 -0.130257 -0.250597
			 0.829490 -0.382399 -0.407085
			 0.996910  0.078396 -0.005042
			 0.972324  0.189952  0.136030
			 0.934177  0.239005  0.264934
			 0.571077 -0.662516 -0.484709
			 0.719425 -0.510505 -0.470969
			 0.386360 -0.808454 -0.443992
			 0.053104 -0.978767 -0.197976
			-0.048681 -0.987077 -0.152672
			-0.293586 -0.920219 -0.258854
			-0.052298 -0.995249 -0.082120
			-0.101942 -0.994698  0.013581
			-0.196439 -0.974728 -0.106384
			 0.187582 -0.962535 -0.195804
			 0.381008 -0.867153 -0.320747
			-0.632330 -0.646790 -0.426405
			-0.512060 -0.736102 -0.442660
			-0.312755 -0.904635 -0.289518
			-0.343512 -0.871178 -0.350784
			-0.370343 -0.860036 -0.350976
			-0.309589 -0.897192 -0.314964
			-0.623686 -0.663121  0.413869
			-0.728617 -0.668105 -0.150843
			-0.745580 -0.565102  0.353229
			-0.768306 -0.592389  0.242447
			-0.562748 -0.473313  0.677708
			-0.515043 -0.308714  0.799641
			 0.180821  0.365880  0.912927
			 0.784226  0.270025  0.558638
			 0.926097  0.229758  0.299259
			 0.832790  0.263516  0.486847
			 0.714334  0.274228  0.643837
			 0.673806  0.287663  0.680614
			 0.471083  0.365725  0.802699
			 0.589979  0.305285  0.747480
			 0.498031  0.327101  0.803100
			 0.078361  0.401747  0.912392
			 0.119845  0.459215  0.880204
			 0.279409  0.436514  0.855211
			 0.115238  0.446070  0.887548
			 0.346759  0.387252  0.854280
			 0.452367  0.362174  0.814981
			-0.062723  0.227502  0.971755
			-0.178761  0.210724  0.961062
			-0.079784  0.297454  0.951397
			-0.328362 -0.028992  0.944107
			-0.264333  0.106521  0.958531
			-0.229052  0.192288  0.954233
			 0.994240  0.047212 -0.096214
			 0.996405  0.056487 -0.063137
			 0.994803  0.094210 -0.038614
			 0.975773 -0.140225 -0.167938
			 0.891736 -0.276903 -0.357954
			 0.817576 -0.334697 -0.468559
			 0.979533  0.185447  0.078258
			 0.569234 -0.702605 -0.426988
			 0.708087 -0.570642 -0.415909
			 0.785320 -0.380503 -0.488354
			 0.039293 -0.994070 -0.101392
			 0.019934 -0.998980  0.040525
			-0.030619 -0.993647  0.108300
			-0.094150 -0.988538  0.118020
			-0.149227 -0.988803  0.000869
			-0.136882 -0.985622  0.099062
			-0.235368 -0.960197 -0.150409
			 0.162337 -0.985705 -0.045074
			 0.355762 -0.921120 -0.158025
			 0.572509 -0.767744 -0.287754
			-0.573421 -0.755537 -0.316784
			-0.427973 -0.843955 -0.323386
			-0.202260 -0.960784 -0.189696
			-0.299816 -0.918092 -0.259265
			-0.211399 -0.961764 -0.174130
			-0.796444 -0.550975  0.249206
			-0.748207 -0.599313  0.284623
			-0.667866 -0.743830 -0.025906
			-0.693013 -0.450662  0.562704
			-0.478142 -0.184060  0.858780
			 0.741227  0.287185  0.606718
			 0.978497  0.178124  0.103993
			 0.943737  0.207885  0.257187
			 0.861738  0.241466  0.446207
			 0.764084  0.277479  0.582393
			 0.669624  0.303459  0.677876
			 0.344799  0.389903  0.853867
			 0.241253  0.377745  0.893927
			 0.363141  0.360069  0.859348
			 0.612102  0.329219  0.718989
			 0.514778  0.338510  0.787664
			 0.403438  0.359887  0.841260
			-0.076349  0.381201  0.921334
			-0.052552  0.416762  0.907495
			 0.122694  0.408005  0.904698
			-0.045976  0.391372  0.919083
			 0.197610  0.382941  0.902390
			-0.166183  0.307479  0.936931
			-0.644335 -0.269731  0.715596
			-0.408392 -0.037058  0.912054
			-0.358911  0.055416  0.931725
			-0.227085  0.199888  0.953141
			 0.993139  0.082413 -0.082966
			 0.975406 -0.074657 -0.207385
			 0.933340 -0.108661 -0.342154
			 0.898664 -0.144860 -0.414027
			 0.843310 -0.222585 -0.489167
			 0.989318  0.120041 -0.082707
			 0.695872 -0.624134 -0.355272
			 0.766715 -0.444456 -0.463257
			 0.776848 -0.303250 -0.551858
			 0.801102 -0.234781 -0.550557
			 0.116364 -0.992221  0.044234
			 0.062128 -0.995216  0.075399
			-0.015667 -0.988681  0.149214
			-0.124491 -0.981370  0.146337
			-0.143538 -0.987480 -0.065424
			-0.179091 -0.981536  0.067188
			-0.142185 -0.989696 -0.016910
			-0.163173 -0.979300  0.119775
			 0.213506 -0.976853 -0.013161
			 0.480509 -0.856770 -0.187233
			 0.339224 -0.937914 -0.072416
			 0.598629 -0.751106 -0.278357
			-0.498215 -0.858173 -0.123781
			-0.308066 -0.931233 -0.194679
			-0.107412 -0.991105 -0.078572
			-0.125821 -0.984989 -0.118177
			-0.183577 -0.968829 -0.166343
			-0.633039 -0.346183  0.692401
			-0.715650 -0.613573  0.333726
			-0.651035 -0.732061  0.200598
			 0.680173  0.315203  0.661824
			 0.983003  0.163211 -0.084064
			 0.980381  0.175207  0.090311
			 0.977643  0.168266  0.126102
			 0.884517  0.220771  0.410963
			 0.768700  0.267667  0.580908
			 0.812742  0.259843  0.521471
			 0.675582  0.298202  0.674288
			 0.043083  0.371635  0.927379
			 0.078235  0.362041  0.928873
			 0.205324  0.372987  0.904833
			 0.542618  0.338066  0.768946
			 0.308826  0.343872  0.886780
			-0.033045  0.373569  0.927014
			-0.134503  0.348153  0.927738
			-0.203034  0.286875  0.936205
			-0.185894  0.333066  0.924397
			-0.517009 -0.081235  0.852116
			-0.406080 -0.160640  0.899608
			-0.603596 -0.411474  0.682906
			-0.318475  0.071876  0.945202
			-0.274581  0.187722  0.943062
			-0.249760  0.277572  0.927671
			 0.969456  0.028301 -0.243628
			 0.938755 -0.034206 -0.342883
			 0.868614 -0.134311 -0.476938
			 0.967816 -0.004916 -0.251611
			 0.981522  0.093201 -0.167118
			 0.578517 -0.764515 -0.284314
			 0.720973 -0.569853 -0.394292
			 0.731166 -0.416319 -0.540439
			 0.748342 -0.338942 -0.570178
			 0.724542 -0.264323 -0.636532
			 0.755672 -0.202786 -0.622766
			 0.776412 -0.132329 -0.616177
			 0.169906 -0.983127  0.067773
			 0.104625 -0.988087  0.112865
			-0.048907 -0.991025  0.124409
			-0.113999 -0.989776  0.085724
			-0.216102 -0.967740  0.129536
			-0.180119 -0.983624  0.006356
			-0.264033 -0.963177  0.050763
			-0.129261 -0.990802 -0.040032
			-0.102209 -0.992312 -0.069788
			-0.077712 -0.994759  0.066445
			-0.131085 -0.985694  0.105941
			 0.418715 -0.893676 -0.161311
			 0.276082 -0.960848 -0.023463
			-0.456825 -0.842215  0.286331
			-0.352235 -0.935632 -0.022886
			-0.204324 -0.977661 -0.049294
			-0.080586 -0.993383 -0.081832
			-0.054104 -0.994027 -0.094782
			 0.955448  0.115314 -0.271703
			 0.951655  0.176735 -0.251231
			 0.891532  0.138126 -0.431384
			 0.970860  0.100077 -0.217753
			 0.989467  0.112621  0.090947
			 0.925292  0.166109  0.340945
			 0.790025  0.262441  0.554062
			 0.771887  0.240325  0.588587
			 0.824916  0.207099  0.525949
			 0.721245  0.282868  0.632291
			 0.612064  0.297385  0.732762
			-0.112117  0.333663  0.936002
			-0.076025  0.345897  0.935187
			 0.016699  0.360372  0.932659
			 0.062492  0.372707  0.925842
			 0.475136  0.312210  0.822661
			 0.391659  0.323946  0.861198
			 0.124565  0.358188  0.925303
			 0.236451  0.340890  0.909882
			-0.242902  0.316857  0.916843
			-0.253345  0.318066  0.913592
			-0.447972 -0.582953  0.677854
			-0.394070 -0.390387  0.832050
			-0.380317 -0.018710  0.924667
			-0.342902  0.144198  0.928238
			-0.314058  0.252174  0.915301
			-0.315403  0.303475  0.899124
			 0.932438 -0.030696 -0.360024
			 0.833254 -0.063468 -0.549235
			 0.923424  0.040357 -0.381654
			 0.483167 -0.848014 -0.217766
			 0.624029 -0.701457 -0.344307
			 0.685452 -0.541135 -0.487164
			 0.666282 -0.449100 -0.595296
			 0.697299 -0.326237 -0.638235
			 0.680167 -0.242708 -0.691712
			 0.714114 -0.202885 -0.669985
			 0.720499 -0.116096 -0.683669
			 0.769478 -0.018013 -0.638419
			 0.731943 -0.054806 -0.679158
			 0.124496 -0.992085  0.016368
			 0.030118 -0.999542  0.002834
			 0.059799 -0.998074 -0.016514
			-0.161594 -0.978571  0.127619
			-0.232712 -0.965328  0.118269
			-0.287107 -0.953747  0.089083
			-0.162672 -0.985438 -0.049497
			-0.217118 -0.976019 -0.015702
			-0.298306 -0.953731 -0.037565
			-0.325961 -0.943692  0.056514
			-0.374942 -0.927046  0.001894
			-0.100992 -0.988562 -0.112008
			 0.113334 -0.992231 -0.051309
			-0.017528 -0.999593  0.022515
			-0.022664 -0.999738 -0.003089
			-0.064497 -0.996823  0.046733
			 0.269333 -0.957882 -0.099606
			-0.391012 -0.826175  0.405640
			-0.314910 -0.941476  0.120227
			-0.206642 -0.968547  0.138624
			-0.107449 -0.993255  0.043572
			-0.003075 -0.999744 -0.022398
			-0.029874 -0.990719 -0.132599
			 0.848784  0.043621 -0.526938
			 0.880498  0.112415 -0.460528
			 0.782976  0.075335 -0.617473
			 0.747435  0.061892 -0.661446
			 0.845077  0.058405 -0.531445
			 0.983702  0.055421 -0.171054
			 0.887922  0.028049 -0.459138
			 0.935756  0.133504  0.326400
			 0.992091  0.090233  0.087255
			 0.846841  0.176552  0.501687
			 0.698639  0.272727  0.661455
			 0.679608  0.253877  0.688244
			 0.738455  0.228789  0.634303
			 0.751034  0.208319  0.626539
			 0.610460  0.280532  0.740703
			 0.515580  0.301771  0.801942
			-0.155878  0.346956  0.924837
			-0.203763  0.315381  0.926831
			-0.246254  0.338747  0.908080
			-0.130710  0.330764  0.934618
			-0.128119  0.364561  0.922324
			-0.075812  0.391181  0.917186
			-0.173717  0.391232  0.903748
			-0.049200  0.373142  0.926469
			 0.411433  0.320213  0.853338
			 0.001165  0.364809  0.931082
			 0.428514  0.297301  0.853222
			 0.010665  0.330828  0.943631
			 0.223644  0.306667  0.925170
			-0.311372  0.313085  0.897232
			-0.323882  0.314366  0.892342
			-0.333510  0.289218  0.897287
			-0.276150  0.314494  0.908204
			-0.343127 -0.822798  0.453065
			-0.269093 -0.706961  0.654060
			-0.355910 -0.257478  0.898350
			-0.417788  0.021949  0.908279
			-0.377651  0.134640  0.916107
			-0.432285  0.116214  0.894217
			-0.363589  0.260425  0.894417
			-0.375271  0.279798  0.883677
			 0.280705 -0.953492 -0.109813
			 0.617338 -0.658734 -0.430074
			 0.535114 -0.776861 -0.331874
			 0.337898 -0.921029 -0.193729
			 0.592381 -0.607844 -0.528782
			 0.637786 -0.471976 -0.608660
			 0.673369 -0.337703 -0.657671
			 0.685206 -0.292713 -0.666942
			 0.669463 -0.176196 -0.721647
			 0.693372 -0.176780 -0.698559
			 0.665403 -0.174936 -0.725697
			 0.658920 -0.170330 -0.732675
			 0.677292 -0.116092 -0.726497
			 0.695118 -0.017633 -0.718679
			 0.677064 -0.049284 -0.734272
			 0.721953  0.028232 -0.691365
			-0.142647 -0.987454  0.067727
			-0.234846 -0.970238  0.059045
			-0.253806 -0.967173 -0.012610
			-0.220135 -0.970181 -0.101441
			-0.406249 -0.912031 -0.056225
			-0.342460 -0.931584 -0.121953
			-0.360450 -0.931715  0.044535
			-0.490153 -0.871457 -0.017694
			-0.433528 -0.900277 -0.039435
			-0.461881 -0.886046 -0.039845
			-0.173149 -0.965633 -0.193834
			-0.096304 -0.966327 -0.238617
			 0.138809 -0.984337 -0.108687
			 0.101273 -0.987296 -0.122432
			-0.006513 -0.999368 -0.034954
			-0.162730 -0.948065  0.273298
			-0.083554 -0.985901  0.144978
			-0.033817 -0.984267  0.173422
			 0.021319 -0.985104 -0.170631
			 0.016278 -0.984673  0.173649
			 0.060617 -0.997836 -0.025475
			 0.669309  0.041412 -0.741829
			 0.641190  0.031918 -0.766718
			 0.729944  0.033005 -0.682709
			 0.773354  0.018445 -0.633706
			 0.926971 -0.015580 -0.374811
			 0.996495  0.042230 -0.072215
			 0.803773  0.007591 -0.594888
			 0.802349 -0.020648 -0.596498
			 0.973714  0.102927  0.203192
			 0.846681  0.160869  0.507201
			 0.891659  0.146162  0.428464
			 0.756182  0.189855  0.626214
			 0.664327  0.236131  0.709163
			 0.583826  0.270623  0.765448
			 0.669682  0.215620  0.710657
			 0.526059  0.296523  0.797080
			-0.347784  0.341545  0.873151
			-0.323878  0.365269  0.872744
			-0.241994  0.348545  0.905514
			-0.239394  0.388058  0.890001
			-0.327257  0.396938  0.857522
			-0.340608  0.392926  0.854164
			-0.213983  0.377949  0.900758
			-0.150307  0.360773  0.920462
			 0.554134  0.243772  0.795934
			 0.371054  0.253959  0.893210
			 0.047343  0.312202  0.948835
			-0.092827  0.318702  0.943298
			-0.211192  0.334736  0.918341
			 0.157865  0.292974  0.942998
			-0.360165  0.278411  0.890375
			-0.408853  0.312081  0.857581
			-0.397589  0.330490  0.855979
			-0.418077  0.236735  0.877022
			-0.151911 -0.913061  0.378473
			-0.156384 -0.899071  0.408919
			-0.268508 -0.601625  0.752297
			-0.379807 -0.208866  0.901178
			-0.471380 -0.012821  0.881837
			-0.466507  0.152327  0.871303
			-0.408675  0.210620  0.888045
			-0.431175  0.236089  0.870833
			-0.438150  0.254229  0.862202
			 0.455072 -0.800689 -0.389623
			 0.295627 -0.911676 -0.285396
			 0.482030 -0.729197 -0.485716
			 0.555689 -0.637834 -0.533270
			 0.652039 -0.445273 -0.613659
			 0.624500 -0.445150 -0.641749
			 0.697870 -0.314990 -0.643241
			 0.705580 -0.127073 -0.697143
			 0.644952 -0.104090 -0.757101
			 0.649966 -0.080308 -0.755708
			 0.638041 -0.109650 -0.762155
			 0.633920 -0.065480 -0.770622
			 0.649346  0.015295 -0.760339
			 0.618981 -0.004800 -0.785391
			-0.066062 -0.997506 -0.024855
			-0.165027 -0.985780 -0.031685
			-0.126305 -0.978236 -0.164626
			-0.002972 -0.971234 -0.238107
			-0.096093 -0.988826 -0.113970
			-0.220761 -0.974573 -0.038358
			-0.266096 -0.940569 -0.211006
			-0.461009 -0.876916 -0.135974
			-0.502751 -0.861605 -0.069839
			-0.385079 -0.893531 -0.230902
			-0.181972 -0.981640 -0.057171
			-0.275575 -0.961096 -0.018792
			-0.321083 -0.941990 -0.097776
			-0.404491 -0.913190 -0.049714
			-0.422476 -0.894477 -0.146373
			-0.512164 -0.844814 -0.154844
			-0.561777 -0.824597 -0.066683
			-0.558375 -0.813128 -0.164438
			-0.595152 -0.799063 -0.085396
			-0.204822 -0.939911 -0.273158
			-0.053233 -0.962942 -0.264404
			-0.168537 -0.935820 -0.309573
			-0.162113 -0.935462 -0.314056
			 0.287311 -0.905271 -0.312950
			 0.141939 -0.969250 -0.201016
			-0.115123 -0.889728  0.441735
			-0.007267 -0.983959 -0.178244
			-0.104402 -0.887504  0.448817
			 0.012370 -0.963427  0.267684
			 0.023228 -0.998991 -0.038443
			 0.597633  0.035215 -0.800996
			 0.540261  0.041523 -0.840473
			 0.577057  0.020489 -0.816447
			 0.658113  0.011621 -0.752830
			 0.721155 -0.005181 -0.692754
			 0.838207 -0.059210 -0.542128
			 0.966857 -0.010846 -0.255087
			 0.900491 -0.045749 -0.432461
			 0.981195  0.000429 -0.193020
			 0.993410  0.073275  0.088132
			 0.678069 -0.055039 -0.732934
			 0.750126 -0.078514 -0.656617
			 0.935868  0.129125  0.327837
			 0.780711  0.176997  0.599302
			 0.832113  0.171390  0.527460
			 0.647871  0.207161  0.733040
			-0.466239  0.364038  0.806286
			-0.402651  0.368047  0.838101
			-0.414921  0.412216  0.811122
			-0.456385  0.418516  0.785211
			-0.452966  0.408921  0.792215
			-0.445795  0.402317  0.799630
			-0.357150  0.392412  0.847618
			-0.284419  0.373562  0.882925
			-0.354124  0.379615  0.854686
			-0.284956  0.363582  0.886909
			 0.517754  0.236350  0.822235
			 0.565803  0.217809  0.795252
			 0.504283  0.187455  0.842947
			 0.115700  0.256127  0.959694
			 0.266909  0.204424  0.941791
			-0.016441  0.308067  0.951223
			-0.142600  0.317309  0.937539
			-0.321069  0.313623  0.893619
			-0.389588  0.341139  0.855480
			-0.021916  0.294628  0.955361
			-0.422760  0.259837  0.868193
			-0.480757  0.255213  0.838892
			-0.488458  0.309845  0.815724
			-0.500037  0.252245  0.828454
			-0.266021 -0.609124  0.747129
			-0.425661 -0.301564  0.853154
			-0.522913 -0.368224  0.768748
			-0.545449 -0.172702  0.820158
			-0.522873  0.049974  0.850944
			-0.495633  0.210201  0.842712
			-0.466470  0.226836  0.854957
			 0.364343 -0.837222 -0.407816
			 0.407698 -0.762535 -0.502318
			 0.552361 -0.583047 -0.595780
			 0.466981 -0.663262 -0.584818
			 0.568292 -0.546319 -0.615289
			 0.585463 -0.453887 -0.671729
			 0.714658 -0.161475 -0.680581
			 0.633585 -0.311658 -0.708123
			 0.689539 -0.019985 -0.723973
			 0.634522  0.014576 -0.772767
			 0.609149 -0.021245 -0.792771
			 0.033315 -0.987959 -0.151084
			 0.078288 -0.948383 -0.307313
			 0.261359 -0.855832 -0.446367
			 0.222991 -0.895671 -0.384771
			 0.075300 -0.949472 -0.304686
			-0.039160 -0.978153 -0.204166
			-0.300174 -0.900441 -0.314804
			-0.538199 -0.803490 -0.254452
			-0.581691 -0.800926 -0.141962
			-0.579783 -0.808624 -0.099893
			-0.433893 -0.825170 -0.361707
			-0.050615 -0.959707 -0.276405
			-0.149071 -0.967365 -0.204897
			-0.140346 -0.929604 -0.340791
			-0.242835 -0.928616 -0.280542
			-0.261083 -0.924131 -0.278959
			-0.397047 -0.829465 -0.392862
			-0.194718 -0.890150 -0.411968
			-0.466120 -0.782623 -0.412593
			-0.662958 -0.745271 -0.071121
			-0.677710 -0.723590 -0.130868
			-0.557510 -0.690462 -0.460918
			-0.624876 -0.742189 -0.242251
			-0.713791 -0.693016 -0.101144
			-0.729294 -0.663658 -0.166398
			-0.235986 -0.895700 -0.376870
			-0.125123 -0.963129 -0.238176
			-0.266852 -0.942741 -0.200074
			-0.295846 -0.951220 -0.087497
			-0.193633 -0.926486 -0.322691
			 0.237459 -0.909460 -0.341314
			-0.183943 -0.979036 -0.087486
			-0.269562 -0.669163  0.692501
			-0.160357 -0.872441  0.461663
			-0.069568 -0.992405  0.101452
			 0.552696  0.053746 -0.831648
			 0.461712  0.074079 -0.883931
			 0.426132  0.063575 -0.902424
			 0.479750  0.028807 -0.876932
			 0.543855 -0.002398 -0.839176
			 0.630334 -0.016934 -0.776139
			 0.801603 -0.094888 -0.590279
			 0.880647 -0.107776 -0.461352
			 0.970771 -0.053083 -0.234062
			 0.998687  0.044963  0.024568
			 0.969145  0.111677  0.219741
			 0.536121 -0.049177 -0.842707
			 0.684707 -0.085734 -0.723759
			 0.599619 -0.104929 -0.793377
			 0.704408 -0.109889 -0.701237
			 0.888354  0.152117  0.433229
			 0.704664  0.194748  0.682292
			 0.723522  0.177473  0.667098
			-0.550161  0.387583  0.739664
			-0.610480  0.419630  0.671732
			-0.543035  0.399038  0.738838
			-0.475215  0.411827  0.777541
			-0.523765  0.437672  0.730830
			-0.569821  0.440389  0.693802
			-0.597353  0.443345  0.668293
			-0.567290  0.412266  0.712895
			-0.478586  0.389217  0.787061
			-0.415921  0.365902  0.832541
			 0.643956  0.141587  0.751847
			 0.415576  0.159733  0.895423
			-0.044767  0.278690  0.959337
			 0.043537  0.201178  0.978587
			-0.082081  0.257953  0.962664
			 0.210294  0.168758  0.962963
			-0.191736  0.306990  0.932199
			-0.500411  0.307684  0.809271
			-0.352931  0.301455  0.885756
			-0.506959  0.342902  0.790829
			-0.554553  0.322052  0.767303
			-0.222125  0.290441  0.930755
			-0.551628  0.256495  0.793673
			-0.577692  0.357683  0.733713
			-0.598590  0.288885  0.747151
			-0.534835  0.299100  0.790247
			-0.600262  0.334562  0.726467
			-0.468452 -0.637811  0.611351
			-0.515396 -0.795926  0.317599
			-0.587128 -0.564814  0.579885
			-0.624308 -0.285154  0.727273
			-0.597571 -0.055049  0.799924
			-0.625297 -0.293896  0.722930
			-0.567595  0.093520  0.817979
			-0.542397  0.204022  0.814973
			 0.386702 -0.738959 -0.551726
			 0.446733 -0.611705 -0.652876
			 0.437170 -0.505173 -0.744098
			 0.652487 -0.102958 -0.750773
			 0.537013 -0.312872 -0.783408
			 0.596693  0.068531 -0.799538
			 0.530642  0.099221 -0.841768
			 0.249593 -0.833231 -0.493385
			 0.187501 -0.884040 -0.428155
			 0.096332 -0.927365 -0.361544
			-0.345954 -0.854095 -0.388377
			-0.681531 -0.695752 -0.226813
			-0.588254 -0.716013 -0.375875
			-0.664467 -0.674719 -0.321306
			-0.672270 -0.720113 -0.171729
			-0.435695 -0.773228 -0.460748
			-0.558465 -0.677005 -0.479355
			 0.003971 -0.883540 -0.468339
			 0.080011 -0.860528 -0.503080
			 0.005228 -0.831162 -0.556006
			-0.185457 -0.767738 -0.613338
			-0.130053 -0.633596 -0.762655
			 0.030817 -0.684880 -0.728004
			-0.296522 -0.668928 -0.681623
			-0.434283 -0.566588 -0.700269
			-0.797610 -0.591164 -0.119767
			-0.764606 -0.606905 -0.216898
			-0.811926 -0.551064 -0.192625
			-0.631432 -0.569087 -0.526720
			-0.487402 -0.400928 -0.775690
			-0.753038 -0.567725 -0.332599
			-0.833243 -0.531787 -0.151357
			-0.854710 -0.446712 -0.264423
			-0.293022 -0.865819 -0.405580
			-0.272734 -0.836449 -0.475363
			-0.370704 -0.782899 -0.499646
			-0.297108 -0.953599 -0.048750
			-0.476897 -0.870281  0.123212
			-0.576285 -0.704471  0.414266
			-0.442710 -0.875284  0.194645
			-0.272506 -0.953550 -0.128388
			-0.381373 -0.919154 -0.098542
			-0.317152 -0.910815 -0.264256
			-0.341487 -0.916022  0.210455
			 0.439568  0.097296 -0.892924
			 0.372227  0.088780 -0.923886
			 0.340125  0.102377 -0.934791
			 0.294571  0.095124 -0.950883
			 0.351358  0.041364 -0.935327
			 0.431007  0.007935 -0.902314
			 0.438371 -0.016564 -0.898642
			 0.757053 -0.126734 -0.640944
			 0.882650 -0.110243 -0.456919
			 0.766967 -0.135537 -0.627209
			 0.882278 -0.088043 -0.462421
			 0.988289 -0.023474 -0.150780
			 0.998747  0.047625  0.015353
			 0.967164  0.085626  0.239293
			 0.363003 -0.056220 -0.930091
			 0.438254 -0.114428 -0.891538
			 0.656468 -0.136929 -0.741822
			 0.516248 -0.146785 -0.843767
			 0.838433  0.122791  0.530992
			-0.666804  0.431688  0.607469
			-0.734515  0.444409  0.512823
			-0.655393  0.438552  0.614924
			-0.626169  0.452108  0.635224
			-0.686255  0.456850  0.565987
			-0.718858  0.447606  0.531876
			-0.688302  0.420486  0.591128
			-0.717504  0.384404  0.580880
			-0.608857  0.378878  0.696954
			-0.565056  0.356853  0.743886
			 0.743752  0.115806  0.658348
			 0.547610  0.129807  0.826604
			 0.273437  0.135909  0.952240
			 0.125039  0.166350  0.978107
			-0.128599  0.222828  0.966339
			 0.012349  0.177313  0.984077
			-0.098726  0.194490  0.975924
			-0.280997  0.251551  0.926155
			-0.599669  0.314744  0.735754
			-0.455474  0.286500  0.842889
			-0.672032  0.297963  0.677932
			-0.603177  0.283537  0.745509
			-0.610653  0.330374  0.719692
			-0.683908  0.308816  0.660986
			-0.656143  0.287668  0.697655
			-0.662866  0.361326  0.655784
			-0.713904  0.331220  0.616956
			-0.593208  0.226607  0.772498
			-0.640111  0.294420  0.709630
			-0.575737  0.396837  0.714875
			-0.735550  0.391333  0.553015