<?xml version="1.0"?>
<VTKFile type="PolyData" version="0.1" byte_order="LittleEndian" compressor="vtkZLibDataCompressor">
	<PolyData>
		<Piece NumberOfPoints="3880" NumberOfVerts="0" NumberOfLines="0" NumberOfStrips="0" NumberOfPolys="7756">
		<PointData Normals="Normals">
		<DataArray type="Float32" Name="Normals" NumberOfComponents="3" format="ascii">
			 0.240983 -0.970177 -0.026143
			 0.324661 -0.936487 -0.132618
			 0.241511 -0.950566  0.195185
			 0.122004 -0.938197  0.323886
			 0.318227 -0.860861 -0.397053
			 0.261821 -0.942186 -0.209131
			 0.104550 -0.992011  0.070598
			 0.381231 -0.894975 -0.231696
			 0.273985 -0.953728  0.123831
			 0.194476 -0.822761  0.534082
			 0.124653 -0.832921  0.539170
			-0.024369 -0.830909  0.555874
			-0.016801 -0.930203  0.366661
			 0.403404 -0.794618 -0.453704
			 0.233147 -0.856944 -0.459662
			 0.238036 -0.802718 -0.546792
			 0.165493 -0.788624 -0.592186
			 0.130799 -0.955855 -0.263121
			 0.052158 -0.984939 -0.164844
			-0.042628 -0.975540  0.215650
			 0.412228 -0.904872 -0.106185
			 0.512320 -0.766065 -0.388165
			 0.302039 -0.868016  0.394108
			 0.327145 -0.633726  0.700976
			 0.162987 -0.655913  0.737030
			 0.033161 -0.711171  0.702237
			-0.176949 -0.846920  0.501414
			-0.118083 -0.713951  0.690166
			 0.516743 -0.682231 -0.517240
			 0.368110 -0.729996 -0.575847
			 0.110729 -0.867856 -0.484319
			 0.182294 -0.748128 -0.638023
			 0.068655 -0.764615 -0.640821
			 0.088509 -0.774621 -0.626201
			 0.026941 -0.716430 -0.697138
			 0.071350 -0.909302 -0.409975
			-0.026268 -0.999378 -0.023541
			-0.188170 -0.925395  0.328992
			 0.598870 -0.775798 -0.198727
			 0.371514 -0.884474  0.282283
			 0.692965 -0.667072 -0.273523
			 0.638152 -0.631135 -0.440943
			 0.547509 -0.527857  0.649308
			 0.766802 -0.608610  0.203981
			 0.477870 -0.745148  0.465183
			 0.251457 -0.617427  0.745355
			 0.141776 -0.540326  0.829426
			 0.043244 -0.583131  0.811227
			-0.372092 -0.785495  0.494516
			-0.291742 -0.750334  0.593200
			-0.091892 -0.578649  0.810383
			-0.306572 -0.640159  0.704422
			 0.389960 -0.649092 -0.653155
			 0.559389 -0.608949 -0.562374
			 0.259871 -0.671115 -0.694314
			 0.088588 -0.682076 -0.725895
			 0.044690 -0.729007 -0.683046
			-0.028975 -0.681512 -0.731233
			 0.039208 -0.818650 -0.572952
			 0.000816 -0.692241 -0.721666
			-0.044835 -0.663384 -0.746935
			-0.082160 -0.629658 -0.772516
			-0.021526 -0.965225 -0.260531
			-0.165777 -0.974722  0.149784
			 0.652798 -0.738695  0.167879
			 0.720031 -0.639196 -0.270154
			 0.706602 -0.562934 -0.428741
			 0.675189 -0.735535  0.055758
			 0.601363 -0.742848  0.294177
			 0.388540 -0.666939  0.635790
			 0.249883 -0.506421  0.825285
			 0.152638 -0.470829  0.868920
			 0.014212 -0.440667  0.897558
			 0.074262 -0.342131  0.936713
			-0.222918 -0.950277  0.217442
			-0.465417 -0.826474  0.316746
			-0.575406 -0.708755  0.408135
			-0.470708 -0.648232  0.598523
			-0.588924 -0.569404  0.573539
			-0.155601 -0.389654  0.907721
			-0.317652 -0.506444  0.801631
			-0.517690 -0.482783  0.706341
			 0.102771 -0.645169 -0.757097
			 0.292244 -0.661921 -0.690256
			 0.681177 -0.515274 -0.520087
			 0.473120 -0.589546 -0.654670
			 0.660983 -0.460681 -0.592346
			-0.012609 -0.643606 -0.765253
			-0.094977 -0.608740 -0.787664
			-0.093474 -0.619835 -0.779145
			-0.101799 -0.963363 -0.248131
			-0.085775 -0.837434 -0.539766
			-0.098511 -0.708278 -0.699026
			-0.139962 -0.607255 -0.782082
			-0.243192 -0.553562 -0.796509
			-0.187360 -0.554701 -0.810681
			 0.726973 -0.677545 -0.111547
			 0.764707 -0.554751 -0.327833
			 0.808532 -0.442745 -0.387625
			 0.772050 -0.446357 -0.452444
			 0.458524 -0.681581  0.570265
			 0.669182 -0.728333  0.147398
			 0.316246 -0.548183  0.774263
			 0.193046 -0.322299  0.926745
			 0.138579 -0.322300  0.936439
			-0.037409 -0.309559  0.950144
			-0.198543 -0.223275  0.954321
			 0.065590 -0.155731  0.985619
			-0.009913 -0.140915  0.989972
			-0.099597 -0.153360  0.983138
			-0.344913 -0.936129 -0.068536
			-0.557356 -0.830270  0.002271
			-0.669173 -0.739199  0.076110
			-0.687261 -0.636512  0.350036
			-0.736992 -0.501704  0.452920
			-0.610171 -0.321286  0.724201
			-0.642069 -0.380898  0.665330
			-0.739433 -0.375686  0.558658
			-0.829912 -0.379822  0.408633
			-0.394933 -0.312225  0.864028
			-0.567167 -0.248632  0.785178
			 0.030384 -0.649023 -0.760162
			-0.112621 -0.633312 -0.765658
			 0.250109 -0.604961 -0.755955
			 0.771634 -0.356907 -0.526496
			 0.519887 -0.472297 -0.711796
			 0.781065 -0.258520 -0.568423
			 0.719625 -0.318104 -0.617211
			-0.184202 -0.540997 -0.820604
			-0.245297 -0.575769 -0.779948
			-0.301936 -0.855326 -0.421013
			-0.298425 -0.746505 -0.594705
			-0.272842 -0.589204 -0.760523
			-0.381362 -0.491998 -0.782624
			-0.358395 -0.499878 -0.788463
			-0.501738 -0.441126 -0.744088
			-0.250019 -0.466953 -0.848201
			-0.348589 -0.477420 -0.806570
			 0.781979 -0.599213 -0.171615
			 0.830637 -0.466382 -0.304188
			 0.860682 -0.311523 -0.402715
			 0.834248 -0.322790 -0.447031
			 0.572788 -0.707428  0.414077
			 0.761744 -0.639553  0.103529
			 0.533099 -0.602363  0.594108
			 0.495688 -0.432998  0.752866
			 0.290179 -0.311038  0.905015
			 0.178944 -0.138341  0.974085
			 0.118946 -0.146522  0.982030
			-0.330863 -0.045982  0.942558
			-0.464508 -0.136312  0.875015
			-0.265939  0.069507  0.961481
			 0.024983 -0.024229  0.999394
			-0.073737  0.023984  0.996989
			-0.161119  0.028060  0.986536
			-0.535014 -0.792730 -0.292127
			-0.733106 -0.638706 -0.233689
			-0.806425 -0.589098  0.051404
			-0.870356 -0.449344  0.201422
			-0.625614 -0.039814  0.779116
			-0.721167 -0.130463  0.680366
			-0.831450 -0.196805  0.519576
			-0.951014 -0.293625  0.096732
			-0.919059 -0.215355  0.330079
			-0.187986 -0.571827 -0.798546
			 0.032817 -0.568529 -0.822009
			-0.259180 -0.576031 -0.775251
			 0.251609 -0.476191 -0.842576
			 0.831923 -0.220791 -0.509073
			 0.681007 -0.262592 -0.683575
			 0.508235 -0.306747 -0.804738
			 0.782037 -0.113658 -0.612781
			 0.823729 -0.140133 -0.549394
			-0.380608 -0.385351 -0.840620
			-0.413881 -0.464872 -0.782685
			-0.524409 -0.680781 -0.511402
			-0.517730 -0.536468 -0.666451
			-0.579623 -0.403525 -0.707958
			-0.671919 -0.338334 -0.658828
			-0.594579 -0.366334 -0.715734
			-0.728875 -0.267256 -0.630330
			-0.414142 -0.318656 -0.852611
			-0.512706 -0.350842 -0.783609
			 0.835717 -0.548042 -0.035035
			 0.864308 -0.492350 -0.102779
			 0.875874 -0.411084 -0.252695
			 0.896027 -0.294602 -0.332183
			 0.891594 -0.183877 -0.413823
			 0.880296 -0.141891 -0.452709
			 0.866129 -0.208232 -0.454379
			 0.747437 -0.539781  0.387266
			 0.535984 -0.391562  0.747930
			 0.286257 -0.189935  0.939139
			 0.189584 -0.031669  0.981354
			 0.113157 -0.020189  0.993372
			-0.453567  0.075436  0.888024
			-0.261966  0.178732  0.948382
			-0.375564  0.215848  0.901311
			-0.000989  0.100258  0.994961
			-0.053940  0.106656  0.992832
			-0.129888  0.083288  0.988024
			-0.151114  0.077135  0.985502
			-0.757687 -0.476756 -0.445662
			-0.881135 -0.445086 -0.159687
			-0.514243  0.107278  0.850908
			-0.726429  0.020442  0.686937
			-0.549520  0.147619  0.822336
			-0.640749  0.122415  0.757928
			-0.840607 -0.007225  0.541597
			-0.931269 -0.302022 -0.203765
			-0.991326 -0.123742  0.044278
			-0.960484 -0.158756 -0.228621
			-0.942417 -0.059399  0.329123
			-0.121256 -0.489625 -0.863461
			-0.361789 -0.478426 -0.800136
			-0.347861 -0.401469 -0.847240
			-0.396474 -0.409187 -0.821811
			 0.033838 -0.345282 -0.937889
			 0.275305 -0.279102 -0.919951
			 0.859241 -0.119730 -0.497362
			 0.695509 -0.113870 -0.709437
			 0.573635 -0.122047 -0.809968
			 0.810794 -0.064584 -0.581758
			 0.735309 -0.053499 -0.675617
			 0.805488 -0.045194 -0.590886
			 0.838757 -0.055884 -0.541631
			-0.552998 -0.178528 -0.813831
			-0.593892 -0.265315 -0.759539
			-0.605686 -0.165452 -0.778312
			-0.536884 -0.308742 -0.785133
			-0.825317 -0.308151 -0.473175
			-0.872297 -0.179702 -0.454759
			-0.754830 -0.134368 -0.642010
			-0.642225 -0.186127 -0.743575
			-0.845253 -0.084749 -0.527603
			 0.793455 -0.533084  0.293685
			 0.844424 -0.514356  0.149618
			 0.898083 -0.400083 -0.182704
			 0.935190 -0.184677 -0.302184
			 0.911967 -0.094644 -0.399198
			 0.859210 -0.107527 -0.500196
			 0.354204 -0.226422  0.907344
			 0.616952 -0.442052  0.651122
			 0.361006 -0.224759  0.905074
			 0.266573 -0.193123  0.944268
			 0.095806  0.056927  0.993771
			 0.194249  0.024913  0.980636
			 0.114379  0.095770  0.988810
			-0.261567  0.226078  0.938334
			-0.319335  0.285082  0.903744
			-0.378136  0.267792  0.886172
			-0.484793  0.220056  0.846493
			-0.067305  0.155622  0.985521
			-0.130549  0.185843  0.973868
			-0.150738  0.224030  0.962854
			-0.128240  0.237092  0.962986
			-0.186232  0.224124  0.956601
			-0.784308  0.110070  0.610529
			-0.539723  0.229548  0.809943
			-0.651936  0.194045  0.733025
			-0.882793  0.123382  0.453270
			-0.960813  0.080218  0.265336
			-0.998922  0.046290  0.003588
			-0.976497 -0.007569 -0.215396
			-0.183421 -0.295704 -0.937505
			-0.388260 -0.192300 -0.901263
			-0.522497 -0.210729 -0.826190
			 0.044503 -0.152542 -0.987294
			-0.201322 -0.126788 -0.971285
			 0.354417 -0.118850 -0.927504
			 0.568314 -0.069651 -0.819859
			 0.773911 -0.102549 -0.624936
			 0.670806 -0.085089 -0.736736
			 0.815106 -0.116014 -0.567576
			-0.735557 -0.031158 -0.676746
			-0.690946 -0.147504 -0.707698
			-0.771746 -0.008889 -0.635869
			-0.657024 -0.123161 -0.743742
			-0.939017 -0.006069 -0.343817
			-0.830701  0.064720 -0.552944
			-0.904588  0.107744 -0.412446
			 0.601211 -0.416818  0.681768
			 0.652460 -0.610069  0.449570
			 0.789023 -0.535642  0.300883
			 0.888153 -0.380319  0.257955
			 0.976690 -0.210314  0.042940
			 0.990560 -0.129837 -0.043967
			 0.975685 -0.106607 -0.191501
			 0.973172 -0.037622 -0.226983
			 0.920137 -0.112583 -0.375064
			 0.971725 -0.029325 -0.234289
			 0.895312 -0.160879 -0.415372
			 0.844947 -0.178193 -0.504292
			 0.818622 -0.151963 -0.553864
			 0.428728 -0.474418  0.768843
			 0.529334 -0.231743  0.816150
			 0.390137 -0.003222  0.920751
			 0.010713  0.125517  0.992034
			 0.450732  0.039446  0.891787
			 0.193092  0.109210  0.975084
			 0.164235  0.197866  0.966373
			-0.054428  0.146340  0.987736
			 0.057682  0.166489  0.984355
			-0.246160  0.293557  0.923705
			-0.413883  0.286570  0.864048
			-0.290126  0.286243  0.913177
			-0.325007  0.298286  0.897439
			-0.375115  0.287737  0.881190
			-0.166587  0.217296  0.961785
			-0.158533  0.179418  0.970915
			-0.211843  0.218999  0.952450
			-0.229836  0.251652  0.940131
			-0.793425  0.181515  0.580973
			-0.899357  0.212084  0.382331
			-0.504642  0.259505  0.823404
			-0.728286  0.214716  0.650766
			-0.953409  0.195302  0.229932
			-0.984723  0.172694 -0.022297
			-0.956147  0.173025 -0.236317
			-0.471609 -0.070742 -0.878965
			-0.617225 -0.036683 -0.785931
			 0.249266 -0.061306 -0.966493
			-0.137015 -0.059142 -0.988802
			-0.378097 -0.035248 -0.925095
			 0.509763 -0.058240 -0.858341
			 0.791334 -0.145979 -0.593701
			 0.738499 -0.147248 -0.657980
			 0.616658 -0.129050 -0.776582
			 0.421928 -0.054980 -0.904960
			-0.836931  0.137797 -0.529679
			-0.800850  0.026700 -0.598270
			-0.853739  0.161117 -0.495147
			-0.853255  0.128019 -0.505536
			-0.744636  0.003577 -0.667461
			-0.892740  0.209617 -0.398844
			 0.755847 -0.154076  0.636362
			 0.875239 -0.035223  0.482406
			 0.931531 -0.071383  0.356587
			 0.801757  0.001284  0.597648
			 0.993525 -0.003317  0.113565
			 0.989858  0.072851  0.121961
			 0.953080 -0.108061 -0.282775
			 0.986550 -0.054197 -0.154212
			 0.978471  0.063595  0.196343
			 0.935635 -0.115503 -0.333537
			 0.898823 -0.185722 -0.397019
			 0.828868 -0.240426 -0.505147
			 0.793421 -0.171375 -0.584049
			 0.789308  0.003148  0.613990
			 0.772222  0.114331  0.624981
			 0.422968  0.134591  0.896093
			 0.359560  0.209845  0.909220
			 0.397444  0.272375  0.876271
			 0.184890  0.305310  0.934132
			 0.064529  0.267882  0.961288
			-0.266505  0.162833  0.949979
			-0.121992  0.160020  0.979547
			-0.049022  0.231867  0.971512
			-0.290141  0.245591  0.924934
			-0.338733  0.287669  0.895827
			-0.374719  0.280235  0.883773
			-0.332808  0.322054  0.886296
			-0.274977  0.206353  0.939045
			-0.964213  0.254002  0.076003
			-0.971674  0.226892  0.066104
			-0.917844  0.182235  0.352636
			-0.529682  0.219819  0.819217
			-0.733943  0.201129  0.648749
			-0.961526  0.242514 -0.129053
			-0.924553  0.260408 -0.278190
			-0.575653  0.032173 -0.817061
			-0.748656  0.078539 -0.658289
			-0.693469  0.085996 -0.715336
			 0.103674 -0.045307 -0.993579
			-0.265139 -0.037575 -0.963478
			-0.446002  0.002228 -0.895029
			 0.763647 -0.144957 -0.629151
			 0.704193 -0.130061 -0.697995
			 0.447606 -0.054664 -0.892559
			 0.603953 -0.053915 -0.795194
			 0.249957  0.030562 -0.967775
			-0.886337  0.234836 -0.399074
			-0.861958  0.148772 -0.484661
			-0.832093  0.123541 -0.540702
			-0.888356  0.208219 -0.409229
			 0.755036  0.172784  0.632508
			 0.986214 -0.023497 -0.163801
			 0.999034  0.013583 -0.041785
			 0.970010  0.052513  0.237323
			 0.708193  0.199885  0.677133
			 0.969589 -0.037224 -0.241892
			 0.891937 -0.188468 -0.411009
			 0.942570 -0.117405 -0.312693
			 0.753616 -0.201726 -0.625595
			 0.889293 -0.177247 -0.421594
			 0.785646 -0.246749 -0.567341
			 0.758220 -0.116631 -0.641482
			 0.724016 -0.091340 -0.683709
			 0.740506  0.298957  0.601893
			 0.627724  0.344340  0.698135
			 0.378190  0.342412  0.860073
			 0.036814  0.354788  0.934222
			 0.362816  0.391125  0.845805
			 0.128244  0.374598  0.918275
			-0.076438  0.331451  0.940371
			-0.144770  0.295747  0.944233
			-0.355505  0.222373  0.907836
			-0.379078  0.184505  0.906784
			-0.342128  0.200879  0.917930
			-0.250871  0.175227  0.952029
			-0.219775  0.237975  0.946080
			-0.373406  0.333995  0.865456
			-0.420945  0.267111  0.866866
			-0.349411  0.346675  0.870476
			-0.406774  0.300674  0.862630
			-0.344562  0.368500  0.863414
			-0.952233  0.270382 -0.141933
			-0.956771  0.222126 -0.187747
			-0.983843  0.178209  0.017156
			-0.909707  0.159521  0.383387
			-0.531337  0.284290  0.798035
			-0.627627  0.294827  0.720528
			-0.917636  0.255753 -0.304194
			-0.729781  0.107173 -0.675229
			-0.646166  0.074103 -0.759591
			-0.807494  0.141710 -0.572600
			-0.021626 -0.008043 -0.999734
			-0.555560  0.036655 -0.830668
			-0.353565  0.013829 -0.935308
			 0.700292 -0.080421 -0.709312
			 0.439339  0.033971 -0.897679
			 0.573304  0.024496 -0.818977
			 0.360862  0.098804 -0.927370
			 0.159693  0.158938 -0.974288
			 0.003786  0.066187 -0.997800
			-0.874675  0.159514 -0.457711
			-0.922359  0.204379 -0.327847
			-0.906057  0.180661 -0.382653
			 0.995171  0.095305 -0.023471
			 0.974222  0.159321  0.159710
			 0.915308  0.173741  0.363352
			 0.991537  0.128471 -0.018720
			 0.983963  0.118972 -0.132901
			 0.971944  0.046250 -0.230620
			 0.940386 -0.049936 -0.336423
			 0.701873 -0.141414 -0.698123
			 0.690439 -0.094905 -0.717138
			 0.841338 -0.168198 -0.513673
			 0.923158 -0.068476 -0.378273
			 0.946607  0.002982 -0.322375
			 0.745134 -0.155219 -0.648601
			 0.692257 -0.040372 -0.720521
			 0.627237  0.026368 -0.778382
			 0.625894 -0.004658 -0.779894
			 0.913769  0.254152  0.316912
			 0.844333  0.319611  0.430058
			 0.687967  0.375878  0.620819
			-0.123163  0.385625  0.914399
			-0.065216  0.383521  0.921227
			 0.629863  0.396098  0.668116
			 0.322922  0.389605  0.862513
			 0.114283  0.375001  0.919953
			-0.224601  0.339612  0.913355
			-0.304336  0.270968  0.913212
			-0.449024  0.214673  0.867348
			-0.397716  0.208974  0.893393
			-0.477449  0.316388  0.819720
			-0.402543  0.393716  0.826406
			-0.471419  0.251142  0.845395
			-0.373299  0.409038  0.832668
			-0.420842  0.400559  0.813907
			-0.959425  0.164006 -0.229360
			-0.976765  0.196236  0.086153
			-0.715265  0.333334  0.614234
			-0.898782  0.300553  0.319152
			-0.524779  0.475505  0.706047
			-0.830692  0.117444 -0.544203
			-0.769059  0.111322 -0.629409
			-0.719119  0.115830 -0.685165
			-0.622154  0.090040 -0.777700
			-0.372151  0.084729 -0.924297
			 0.483861  0.090904 -0.870411
			 0.317121  0.143113 -0.937525
			-0.140802  0.163122 -0.976507
			-0.202521  0.232419 -0.951298
			 0.056842  0.205989 -0.976902
			-0.128309  0.248742 -0.960034
			-0.914729  0.143627 -0.377680
			-0.880579  0.120272 -0.458384
			-0.921845  0.182970 -0.341649
			 0.964848  0.243630  0.098549
			 0.977380  0.204113 -0.055365
			 0.969432  0.083816 -0.230601
			 0.690291 -0.044192 -0.722181
			 0.629467 -0.017401 -0.776832
			 0.882193 -0.030604 -0.469893
			 0.783928 -0.051421 -0.618719
			 0.929913  0.070535 -0.360953
			 0.955896  0.124178 -0.266165
			 0.504830  0.085867 -0.858938
			 0.520022  0.051718 -0.852586
			 0.915716  0.316932  0.247018
			 0.811699  0.384527  0.439641
			-0.226984  0.376761  0.898070
			-0.065029  0.367810  0.927624
			-0.184562  0.342180  0.921331
			 0.914806  0.316169  0.251330
			 0.771627  0.329608  0.544012
			 0.460161  0.359948  0.811597
			 0.074836  0.325860  0.942452
			-0.307743  0.328739  0.892875
			-0.377892  0.254769  0.890107
			-0.557925  0.226238  0.798459
			-0.464959  0.213285  0.859257
			-0.489250  0.412031  0.768677
			-0.626464  0.343307  0.699773
			-0.438078  0.479719  0.760235
			-0.445844  0.520030  0.728555
			-0.932873  0.204446 -0.296565
			-0.941028  0.257973 -0.218897
			-0.739463  0.493822  0.457531
			-0.741287  0.517686  0.427193
			-0.952763  0.279411  0.119046
			-0.575025  0.585577  0.571354
			-0.843927  0.115651 -0.523843
			-0.815518  0.127061 -0.564612
			-0.790370  0.156045 -0.592423
			-0.702947  0.178748 -0.688415
			-0.518518  0.182927 -0.835270
			 0.373581  0.113781 -0.920593
			 0.177283  0.162417 -0.970665
			-0.493592  0.251773 -0.832453
			-0.316312  0.251470 -0.914718
			-0.099956  0.203854 -0.973885
			-0.927706  0.205229 -0.311837
			-0.946515  0.158128 -0.281255
			-0.927885  0.112088 -0.355621
			-0.883045  0.115418 -0.454875
			-0.919482  0.264020 -0.291284
			 0.973273  0.153972 -0.170390
			 0.982435  0.179998 -0.049209
			 0.765348  0.034106 -0.642713
			 0.661267  0.004875 -0.750135
			 0.504722  0.021690 -0.863010
			 0.855065  0.043979 -0.516652
			 0.875642  0.091389 -0.474236
			 0.939928  0.107291 -0.324075
			 0.397168  0.082307 -0.914048
			-0.344026  0.333705  0.877660
			-0.313729  0.304125  0.899490
			-0.226244  0.269911  0.935928
			 0.928015  0.260235  0.266581
			 0.754756  0.284084  0.591303
			 0.409117  0.279144  0.868736
			 0.253225  0.242156  0.936610
			-0.066005  0.228734  0.971249
			-0.390336  0.288007  0.874466
			-0.719790  0.227388  0.655894
			-0.537873  0.222037  0.813260
			-0.657954  0.215303  0.721624
			-0.437685  0.272946  0.856699
			-0.592218  0.473538  0.651951
			-0.733226  0.423283  0.532176
			-0.824582  0.284704  0.488884
			-0.919951  0.355519 -0.165215
			-0.807379  0.571450  0.146917
			-0.847767  0.528672  0.042391
			-0.739769  0.520564  0.426328
			-0.858547  0.122658 -0.497848
			-0.849062  0.187988 -0.493715
			-0.770196  0.201454 -0.605156
			-0.645253  0.221818 -0.731058
			 0.218902  0.133001 -0.966640
			 0.039303  0.180705 -0.982752
			-0.397806  0.217505 -0.891315
			-0.218915  0.204250 -0.954127
			-0.944446  0.297873 -0.138900
			-0.962374  0.166021 -0.215111
			-0.966802  0.147305 -0.208793
			-0.886620  0.127766 -0.444501
			-0.919166  0.147332 -0.365276
			-0.907781  0.407118 -0.100935
			 0.945779  0.208047  0.249438
			 0.975841  0.098725 -0.194906
			 0.987112  0.146715  0.063917
			 0.821397  0.045607 -0.568530
			 0.664149  0.004583 -0.747587
			 0.561497  0.010667 -0.827410
			 0.420201  0.023183 -0.907135
			 0.299294  0.061600 -0.952171
			 0.912499  0.052421 -0.405707
			-0.463574  0.291102  0.836875
			-0.470145  0.308738  0.826828
			-0.481838  0.320240  0.815646
			-0.414349  0.296278  0.860543
			-0.398383  0.268125  0.877154
			-0.321237  0.225564  0.919743
			 0.889706  0.195570  0.412524
			 0.608087  0.234354  0.758491
			 0.494664  0.204146  0.844768
			 0.149528  0.202495  0.967800
			-0.116034  0.193528  0.974209
			-0.846333  0.235658  0.477688
			-0.754756  0.250969  0.606101
			-0.584861  0.273572  0.763607
			-0.698773  0.284158  0.656483
			-0.894976  0.373324  0.244228
			-0.937046  0.259051  0.234176
			-0.925043  0.244611  0.290621
			-0.866920  0.487395  0.104387
			-0.917909  0.177787 -0.354733
			-0.902463  0.226590 -0.366358
			-0.807897  0.211362 -0.550116
			-0.507444  0.199979 -0.838158
			-0.729432  0.200417 -0.654035
			 0.057592  0.114130 -0.991795
			-0.028300  0.166791 -0.985586
			-0.272615  0.191532 -0.942866
			-0.974959  0.222331 -0.004871
			-0.979419  0.199147  0.032842
			-0.960150  0.177684 -0.215733
			 0.988736  0.067099 -0.133785
			 0.958418  0.120351  0.258747
			 0.793315  0.018215 -0.608538
			 0.455312  0.023482 -0.890022
			 0.646806  0.007660 -0.762616
			 0.307169  0.049917 -0.950345
			 0.120400  0.082136 -0.989322
			 0.783937  0.030410 -0.620095
			 0.798480  0.022630 -0.601596
			 0.917330  0.026160 -0.397267
			-0.625431  0.321731  0.710862
			-0.535521  0.305306  0.787404
			-0.664396  0.306390  0.681691
			-0.550608  0.299598  0.779148
			-0.600024  0.321447  0.732559
			-0.560665  0.270263  0.782696
			-0.336234  0.191180  0.922170
			-0.571716  0.209541  0.793242
			 0.787789  0.185243  0.587429
			 0.758358  0.145715  0.635343
			 0.432064  0.167886  0.886078
			 0.118261  0.172378  0.977906
			-0.167845  0.176029  0.969970
			-0.837866  0.282264  0.467233
			-0.905572  0.286312  0.312994
			-0.798515  0.316191  0.512247
			-0.957746  0.261719  0.119275
			-0.970376  0.202962 -0.131063
			-0.956882  0.252236 -0.144063
			-0.946712  0.301119 -0.114294
			-0.930071  0.292380 -0.222444
			-0.876854  0.242644 -0.415032
			-0.851974  0.240304 -0.465182
			-0.444462  0.192154 -0.874946
			-0.619350  0.209539 -0.756636
			-0.723133  0.203872 -0.659936
			-0.163450  0.174296 -0.971033
			-0.023577  0.122956 -0.992132
			-0.204463  0.142254 -0.968483
			 0.993731  0.061674  0.093247
			 0.984090  0.026437 -0.175693
			 0.912800  0.100828  0.395766
			 0.218925  0.047420 -0.974589
			 0.217718  0.037228 -0.975302
			 0.610041  0.012210 -0.792276
			 0.343164 -0.006951 -0.939250
			-0.170962  0.135022 -0.975982
			-0.028393  0.081500 -0.996269
			 0.615276 -0.006196 -0.788288
			 0.760432  0.005399 -0.649396
			 0.894809 -0.001068 -0.446448
			-0.807896  0.318021  0.496153
			-0.747197  0.329109  0.577394
			-0.748703  0.320678  0.580180
			-0.800322  0.265062  0.537798
			-0.549267  0.190915  0.813546
			-0.439977  0.214545  0.872004
			-0.790418  0.228671  0.568286
			 0.721055  0.126620  0.681210
			 0.434306  0.150335  0.888132
			 0.362349  0.152092  0.919550
			 0.034986  0.149973  0.988071
			-0.232023  0.168756  0.957960
			-0.907730  0.315597  0.276449
			-0.946750  0.310898  0.083711
			-0.899461  0.320283  0.297304
			-0.948335  0.314654  0.040675
			-0.937185  0.273912 -0.216000
			-0.866670  0.220504 -0.447505
			-0.582779  0.185035 -0.791284
			-0.415348  0.181207 -0.891432
			-0.692709  0.189930 -0.695759
			 0.987999  0.044861  0.147799
			 0.915305  0.093597  0.391734
			 0.989653  0.004070 -0.143423
			 0.059283  0.070455 -0.995752
			 0.105932  0.043560 -0.993419
			-0.033838  0.085582 -0.995756
			 0.517613 -0.028798 -0.855130
			 0.173114 -0.045686 -0.983842
			 0.010620  0.013944 -0.999846
			-0.260323  0.134243 -0.956144
			-0.467035  0.157039 -0.870182
			-0.172301  0.125224 -0.977052
			 0.740686  0.016090 -0.671659
			 0.583372  0.029358 -0.811675
			 0.957482 -0.028035 -0.287129
			 0.745653  0.038966 -0.665194
			 0.808915  0.006348 -0.587892
			-0.872083  0.325554  0.365357
			-0.882935  0.323406  0.340345
			-0.904385  0.319731  0.282595
			-0.934033  0.298338  0.196411
			-0.921528  0.275355  0.273798
			-0.629906  0.235669  0.740053
			-0.743896  0.265197  0.613423
			-0.480373  0.172444  0.859945
			-0.718373  0.223905  0.658640
			-0.944521  0.237448  0.226933
			 0.687151  0.120959  0.716375
			 0.647917  0.141151  0.748518
			 0.649258  0.151334  0.745361
			 0.341311  0.143614  0.928914
			 0.197350  0.127716  0.971978
			-0.134252  0.144509  0.980354
			-0.949208  0.303889  0.081583
			-0.954800  0.254710 -0.153232
			-0.872718  0.198460 -0.446068
			-0.714944  0.180798 -0.675402
			 0.866258  0.109122  0.487533
			 0.988928  0.027338  0.145857
			 0.875742  0.076289  0.476714
			 0.984780 -0.014078  0.173232
			-0.152928  0.086493 -0.984445
			-0.321825  0.149799 -0.934874
			 0.368106 -0.024847 -0.929452
			 0.055705 -0.011603 -0.998380
			-0.136922  0.002977 -0.990577
			-0.289680  0.083872 -0.953442
			-0.414169  0.200100 -0.887933
			-0.611080  0.215579 -0.761647
			 0.560291  0.080609 -0.824364
			 0.338665  0.051151 -0.939516
			 0.341930  0.129262 -0.930793
			 0.883660 -0.017008 -0.467821
			 0.983760 -0.081097 -0.160123
			 0.556551  0.084437 -0.826511
			 0.699388  0.021338 -0.714424
			-0.943765  0.297413  0.144409
			-0.949118  0.299472  0.097427
			-0.939275  0.343164  0.000188
			-0.933271  0.342473 -0.108246
			-0.944495  0.296500 -0.141482
			-0.289240  0.116790  0.950105
			-0.864930  0.154556  0.477503
			-0.611098  0.120299  0.782360
			-0.884998  0.189532 -0.425272
			-0.988966  0.139506 -0.049833
			 0.567442  0.107598  0.816353
			 0.390588  0.059168  0.918662
			 0.063393  0.101310  0.992833
			-0.949576  0.246223 -0.194111
			-0.819172  0.246862 -0.517703
			 0.752525  0.007671  0.658519
			 0.836548 -0.023085  0.547408
			 0.920595 -0.068340  0.384492
			-0.408286  0.147464 -0.900865
			-0.613908  0.253398 -0.747601
			 0.044738  0.060363 -0.997173
			-0.257680  0.041722 -0.965329
			-0.387447  0.082925 -0.918155
			-0.579074  0.184210 -0.794191
			-0.656494  0.286540 -0.697789
			 0.291370  0.162284 -0.942745
			 0.010602  0.153192 -0.988139
			 0.004049  0.219266 -0.975657
			 0.832954 -0.022068 -0.552901
			 0.948847 -0.186175  0.255005
			 0.938881 -0.122491 -0.321712
			 0.429571  0.071106 -0.900229
			 0.190475  0.136139 -0.972206
			 0.627078  0.033119 -0.778252
			-0.914081  0.316822 -0.253140
			-0.840560  0.352211 -0.411591
			-0.824238  0.333460 -0.457642
			-0.813641  0.303791 -0.495681
			-0.783508  0.222755 -0.580082
			-0.129095  0.072127  0.989006
			-0.490063  0.083624  0.867667
			-0.874943  0.056109  0.480965
			-0.997391  0.071946 -0.005888
			-0.688056  0.201358 -0.697161
			-0.559156  0.199024 -0.804819
			-0.852848  0.090380 -0.514278
			-0.627773  0.137036 -0.766239
			 0.593518  0.015103  0.804679
			 0.356719  0.067663  0.931758
			 0.264454  0.040873  0.963532
			 0.651945  0.027482  0.757768
			 0.647547 -0.083058  0.757485
			-0.286796  0.081368 -0.954530
			-0.545041  0.142532 -0.826205
			-0.121430  0.205855 -0.971019
			-0.307511  0.186773 -0.933034
			-0.418059  0.218512 -0.881748
			 0.793955 -0.016515 -0.607752
			 0.667971  0.030141 -0.743577
			 0.958321 -0.250797  0.136829
			 0.713658 -0.158289  0.682376
			 0.907722 -0.088717 -0.410086
			 0.421633  0.064015 -0.904504
			 0.075370  0.085987 -0.993441
			-0.242473  0.151613 -0.958238
			 0.112369  0.038488  0.992921
			-0.040103  0.052704  0.997805
			-0.337915  0.071010  0.938494
			-0.621138  0.047714  0.782247
			-0.998078  0.047382 -0.039941
			-0.852857  0.002828  0.522136
			-0.999727 -0.023327 -0.001587
			-0.917303  0.049971 -0.395043
			-0.937109  0.060236 -0.343800
			-0.421388  0.080850 -0.903269
			-0.686047  0.053760 -0.725568
			 0.369305 -0.028713  0.928865
			 0.727895 -0.011872 -0.685586
			 0.938487  0.013229 -0.345061
			 0.533436  0.022619 -0.845538
			 0.497404 -0.125434  0.858403
			 0.870498 -0.265610  0.414349
			 0.960293 -0.055849 -0.273347
			 0.163469  0.054977 -0.985016
			-0.108624  0.065331 -0.991934
			 0.284162  0.036686  0.958074
			 0.239317  0.044728  0.969911
			 0.063457  0.060182  0.996168
			-0.243245  0.056050  0.968344
			-0.538208  0.059063  0.840740
			-0.822057  0.011473 -0.569289
			-0.869916 -0.008625  0.493124
			-0.994670 -0.032402  0.097888
			-0.920069 -0.010744 -0.391609
			-0.329103  0.047547 -0.943096
			 0.781980  0.005229 -0.623282
			 0.556945  0.011741 -0.830466
			 0.944092  0.153346  0.291847
			 0.958686  0.064969  0.276947
			 0.950831  0.034905 -0.307737
			 0.997004  0.043011  0.064285
			 0.295392  0.021853 -0.955126
			 0.673331  0.024504  0.738935
			 0.547095  0.078427  0.833388
			 0.983071  0.013270  0.182745
			-0.053687  0.019959 -0.998358
			 0.623408  0.082928  0.777487
			 0.435874  0.063268  0.897781
			 0.175980  0.022269  0.984142
			-0.036636 -0.007960  0.999297
			-0.355306  0.045924  0.933621
			-0.522747  0.118649  0.844191
			-0.645993  0.109924  0.755387
			-0.434629  0.008935 -0.900565
			-0.703473  0.008537 -0.710670
			-0.907408  0.063037  0.415496
			-0.975086 -0.021176 -0.220814
			-0.644215  0.031659 -0.764189
			 0.891553  0.032187 -0.451771
			 0.648296  0.021569 -0.761083
			 0.367902  0.022817 -0.929585
			 0.835749  0.072875  0.544254
			 0.991709  0.066770  0.109796
			 0.075367  0.033361 -0.996598
			-0.252069  0.031827 -0.967186
			 0.724954  0.022224  0.688438
			 0.389276 -0.029270  0.920656
			 0.368376 -0.060138  0.927730
			-0.085674 -0.020011  0.996122
			-0.218095  0.029718  0.975475
			-0.392053  0.084456  0.916058
			-0.596732  0.109983  0.794867
			-0.864631  0.271077  0.423002
			-0.834363  0.200257  0.513551
			-0.981332  0.181911 -0.062418
			-0.886531  0.136475 -0.442083
			-0.264738  0.026772 -0.963948
			-0.652715  0.041730 -0.756453
			 0.997759  0.004929  0.066729
			 0.905296 -0.002307 -0.424776
			 0.616303 -0.004018 -0.787499
			 0.261466 -0.009379 -0.965167
			 0.048237  0.022393 -0.998585
			 0.825765 -0.036140  0.562855
			 0.855394 -0.113124  0.505475
			 0.238275 -0.104558  0.965553
			 0.024995 -0.002996  0.999683
			-0.153857  0.107517  0.982226
			-0.190769  0.102977  0.976219