<?xml version="1.0"?>
<VTKFile type="PolyData" version="0.1" byte_order="LittleEndian" compressor="vtkZLibDataCompressor">
	<PolyData>
		<Piece NumberOfPoints="7336" NumberOfVerts="0" NumberOfLines="0" NumberOfStrips="0" NumberOfPolys="14668">
		<PointData Normals="Normals">
		<DataArray type="Float32" Name="Normals" NumberOfComponents="3" format="ascii">
			 0.162963 -0.505586  0.847246
			 0.176836 -0.706063  0.685714
			 0.610600 -0.682599  0.401530
			-0.235513 -0.477888  0.846260
			 0.071103 -0.395197  0.915841
			 0.458573 -0.520541  0.720241
			 0.450535 -0.875221  0.176087
			-0.097629 -0.802489  0.588626
			 0.834431 -0.531713  0.144934
			 0.819937 -0.559384 -0.121627
			-0.387428 -0.655437  0.648307
			-0.271646 -0.440964  0.855429
			-0.482274 -0.475165  0.735955
			 0.379626 -0.378048  0.844372
			 0.742765 -0.227202  0.629825
			-0.246579 -0.409592  0.878313
			 0.261236 -0.423656  0.867336
			-0.061871 -0.435290  0.898162
			 0.826421 -0.449690  0.338832
			-0.030750 -0.968115  0.248612
			 0.510894 -0.852577 -0.110001
			 0.954601 -0.252617 -0.157864
			 0.771958 -0.579279 -0.261757
			 0.921568 -0.293183 -0.254471
			-0.309765 -0.778703  0.545588
			-0.429257 -0.417742  0.800768
			-0.539438 -0.454217  0.709009
			-0.557378 -0.399304  0.727933
			-0.608431 -0.397197  0.687056
			 0.772796 -0.280477  0.569314
			 0.983924 -0.132954  0.119234
			 0.995966 -0.077529  0.045181
			 0.894650 -0.186795  0.405843
			 0.564539 -0.353440  0.745907
			 0.992819 -0.082443  0.086685
			-0.451115 -0.396335  0.799634
			-0.319198 -0.421044  0.849020
			 0.292918 -0.389620  0.873152
			 0.028024 -0.515144  0.856646
			-0.269865 -0.513074  0.814817
			 0.153823 -0.987985  0.014964
			 0.520465 -0.789216 -0.325966
			 0.979584 -0.078291 -0.185163
			 0.733096 -0.544896 -0.407012
			 0.833076 -0.361472 -0.418715
			 0.934842 -0.116722 -0.335331
			 0.863870 -0.204209 -0.460464
			 0.019760 -0.989982  0.139803
			-0.240019 -0.898906  0.366551
			-0.441551 -0.647443  0.621168
			-0.569858 -0.555834  0.605235
			-0.673090 -0.408239  0.616677
			-0.559883 -0.393935  0.728935
			-0.611538 -0.398216  0.683700
			-0.650583 -0.396195  0.647897
			 0.637244 -0.275222  0.719843
			 0.743268 -0.276541  0.609162
			 0.984361 -0.094769  0.148497
			 0.992921  0.002179 -0.118753
			-0.473746 -0.453582  0.754870
			 0.381154 -0.501421  0.776723
			 0.098774 -0.592194  0.799719
			-0.130165 -0.662578  0.737596
			-0.392857 -0.619563  0.679563
			 0.317787 -0.899344 -0.300318
			 0.519343 -0.683189 -0.513358
			 0.931944 -0.016650 -0.362219
			 0.958008  0.020185 -0.286029
			 0.682200 -0.446781 -0.578783
			 0.865790 -0.065415 -0.496114
			 0.772625 -0.263117 -0.577772
			 0.157742 -0.976438 -0.147262
			-0.055199 -0.998474  0.001658
			-0.419601 -0.841655  0.339930
			-0.631877 -0.650681  0.421124
			-0.725718 -0.511536  0.460070
			-0.725887 -0.527531  0.441361
			-0.655211 -0.457758  0.600963
			-0.570706 -0.438971  0.693974
			-0.592026 -0.477708  0.649077
			-0.617649 -0.448130  0.646289
			-0.612656 -0.449873  0.649820
			 0.903636 -0.218161  0.368574
			 0.757382 -0.330924  0.562905
			 0.968739 -0.123916  0.214915
			 0.997317  0.047452 -0.055733
			 0.934480  0.065603 -0.349920
			 0.978953  0.075416 -0.189642
			-0.538153 -0.565211  0.625242
			 0.659787 -0.455514  0.597652
			 0.394617 -0.605239  0.691349
			 0.153603 -0.676108  0.720614
			 0.019247 -0.825690  0.563795
			-0.269920 -0.793646  0.545225
			-0.431253 -0.742173  0.513031
			 0.355828 -0.777285 -0.518858
			 0.501860 -0.604935 -0.618215
			 0.889556  0.065745 -0.452069
			 0.606712 -0.455115 -0.651744
			 0.763373 -0.241752 -0.599013
			 0.797879 -0.131051 -0.588401
			 0.857781  0.001190 -0.514014
			 0.213028 -0.895566 -0.390615
			-0.327231 -0.941880 -0.076038
			-0.008084 -0.923998 -0.382313
			-0.596054 -0.797637  0.092165
			-0.702599 -0.675423  0.223963
			-0.616143 -0.775288  0.138913
			-0.679925 -0.654561  0.330533
			-0.686118 -0.547872  0.478621
			-0.579950 -0.475978  0.661138
			-0.530996 -0.546720  0.647410
			-0.603701 -0.591908  0.534033
			-0.541051 -0.615124  0.573486
			-0.576479 -0.566859  0.588510
			-0.544506 -0.552986  0.630650
			-0.530979 -0.513376  0.674171
			-0.451611 -0.550693  0.701987
			 0.846597 -0.291376  0.445391
			 0.994504 -0.008941  0.104314
			 0.905335 -0.239095  0.351002
			 0.943696  0.202993 -0.261211
			 0.966462  0.180882 -0.182301
			 0.993902  0.107501 -0.024548
			 0.843401  0.159393 -0.513098
			 0.927698  0.146289 -0.343476
			 0.854378  0.148493 -0.497984
			-0.500385 -0.707655  0.498838
			 0.803958 -0.364424  0.469944
			 0.720286 -0.447234  0.530255
			 0.506946 -0.613140  0.605859
			 0.277433 -0.736242  0.617234
			 0.235940 -0.831087  0.503614
			 0.106947 -0.927666  0.357769
			-0.131992 -0.920488  0.367805
			-0.283396 -0.895042  0.344364
			-0.380148 -0.848663  0.367774
			 0.185541 -0.794321 -0.578471
			 0.403804 -0.649945 -0.643827
			 0.852429  0.157870 -0.498439
			 0.491511 -0.556572 -0.669809
			 0.672697 -0.344329 -0.654917
			 0.752702 -0.218592 -0.621013
			 0.838816 -0.055636 -0.541564
			 0.858853  0.125751 -0.496547
			-0.230210 -0.903177 -0.362317
			-0.454048 -0.880069 -0.138994
			-0.280505 -0.922009 -0.266864
			-0.428818 -0.895014 -0.122744
			-0.611589 -0.785264  0.096531
			-0.637297 -0.756467  0.147006
			-0.644330 -0.681406  0.347166
			-0.457128 -0.679220  0.574191
			-0.335637 -0.669487  0.662673
			-0.547859 -0.729479  0.409525
			-0.490202 -0.769918  0.408569
			-0.536256 -0.669007  0.514644
			-0.447417 -0.654561  0.609400
			-0.392068 -0.616695  0.682620
			-0.331676 -0.680723  0.653152
			-0.221457 -0.689292  0.689807
			 0.916661 -0.218237  0.334822
			 0.959939 -0.095578  0.263406
			 0.991195  0.081335  0.104485
			 0.861251  0.293347 -0.414963
			 0.877909  0.290857 -0.380367
			 0.803312  0.354822 -0.478322
			 0.894706  0.292739 -0.337350
			 0.976727  0.190987 -0.097619
			 0.791621  0.276342 -0.544951
			 0.759350  0.261845 -0.595672
			 0.823672  0.235610 -0.515803
			 0.860195 -0.290505  0.419133
			 0.798000 -0.375755  0.471173
			 0.624525 -0.578229  0.524995
			 0.407772 -0.748368  0.523131
			 0.314478 -0.849850  0.422917
			-0.031370 -0.970288  0.239912
			 0.314940 -0.908988  0.273046
			 0.093910 -0.980155  0.174574
			-0.134372 -0.962265  0.236624
			-0.190778 -0.969570  0.153421
			-0.276248 -0.935161  0.221721
			-0.299219 -0.938317  0.173290
			-0.025854 -0.879986 -0.474295
			 0.285375 -0.716892 -0.636103
			 0.817713  0.263064 -0.511999
			 0.588242 -0.427977 -0.686153
			 0.413419 -0.584201 -0.698422
			 0.583423 -0.423488 -0.693019
			 0.756756 -0.206444 -0.620243
			 0.833407  0.068938 -0.548343
			 0.821238  0.233497 -0.520622
			-0.128346 -0.892999 -0.431369
			 0.057359 -0.840584 -0.538635
			-0.433516 -0.887627 -0.155508
			-0.570051 -0.817748  0.079562
			-0.566921 -0.798417  0.202808
			-0.377241 -0.856404  0.352506
			-0.246030 -0.779093  0.576613
			-0.129095 -0.764366  0.631727
			-0.483729 -0.867953  0.112536
			-0.396777 -0.884162  0.246630
			-0.425151 -0.778223  0.462186
			-0.256104 -0.774920  0.577849
			-0.118142 -0.756223  0.643560
			-0.017746 -0.779232  0.626484
			 0.886000 -0.234192  0.400198
			 0.940994 -0.090641  0.326060
			 0.964711 -0.022242  0.262370
			 0.980562  0.103850  0.166471
			 0.985456  0.168289  0.023576
			 0.750778  0.339732 -0.566493
			 0.773184  0.374486 -0.511807
			 0.724955  0.376226 -0.576970
			 0.795395  0.372223 -0.478327
			 0.904423  0.289779 -0.313125
			 0.933813  0.292480 -0.206030
			 0.955678  0.277086 -0.099508
			 0.770342  0.340010 -0.539413
			 0.795644 -0.366566  0.482266
			 0.721454 -0.531100  0.444338
			 0.499952 -0.758728  0.417589
			-0.052232 -0.990935  0.123776
			 0.492466 -0.815902  0.302953
			 0.371642 -0.917692  0.140442
			 0.202098 -0.973929  0.103047
			 0.028504 -0.999575  0.006073
			-0.117021 -0.993025  0.014404
			-0.196801 -0.977604  0.074568
			-0.186565 -0.982324  0.015258
			-0.211719 -0.977317 -0.005196
			-0.234063 -0.967325  0.097450
			 0.213334 -0.731967 -0.647080
			 0.780153  0.332447 -0.529944
			 0.367555 -0.546894 -0.752203
			 0.565733 -0.383356 -0.730058
			 0.789823  0.032743 -0.612460
			 0.685269 -0.144658 -0.713779
			 0.789180  0.229940 -0.569493
			-0.064933 -0.890578 -0.450173
			-0.265890 -0.869924 -0.415374
			-0.446177 -0.860316 -0.246541
			-0.458070 -0.879814 -0.126879
			-0.396041 -0.910850 -0.116207
			-0.496386 -0.865063 -0.072575
			-0.283059 -0.916277  0.283399
			-0.211005 -0.846647  0.488534
			-0.330426 -0.937652 -0.107831
			-0.117088 -0.825656  0.551890
			 0.008584 -0.828401  0.560070
			-0.310320 -0.892995 -0.325978
			-0.440184 -0.846377 -0.299806
			-0.211828 -0.948492  0.235565
			-0.295581 -0.861940  0.411937
			-0.097299 -0.906868  0.410029
			-0.053320 -0.840922  0.538523
			 0.058363 -0.831067  0.553102
			 0.122298 -0.842805  0.524141
			 0.867644 -0.257272  0.425447
			 0.918781 -0.095806  0.382967
			 0.939396  0.043846  0.340020
			 0.947383  0.078132  0.310420
			 0.976489  0.133440  0.169302
			 0.980192  0.194456  0.037550
			 0.732896  0.383561 -0.561912
			 0.741674  0.407836 -0.532532
			 0.689676  0.442480 -0.573200
			 0.703604  0.384595 -0.597518
			 0.839310  0.379942 -0.388847
			 0.790490  0.380662 -0.479815
			 0.890733  0.374702 -0.257282
			 0.888803  0.375653 -0.262515
			 0.926375  0.323205 -0.193310
			 0.967373  0.238431 -0.085670
			 0.619916 -0.686554  0.379932
			 0.835932 -0.312565  0.451132
			 0.743827 -0.514116  0.427091
			 0.562975 -0.730618  0.386337
			 0.529400 -0.792899  0.301739
			 0.431609 -0.888687  0.154755
			 0.285208 -0.958118  0.025798
			 0.146660 -0.987225 -0.062270
			-0.017992 -0.996604 -0.080350
			-0.086074 -0.992404 -0.087897
			-0.152194 -0.987654 -0.037098
			-0.163472 -0.980835 -0.106018
			-0.162080 -0.982137 -0.095590
			-0.126647 -0.991264 -0.036812
			-0.113225 -0.991688  0.061121
			-0.064615 -0.977628  0.200169
			-0.014949 -0.783754 -0.620892
			 0.042929 -0.665967 -0.744745
			 0.184818 -0.604341 -0.774993
			 0.758313  0.294428 -0.581613
			 0.759965  0.373722 -0.531775
			 0.131448 -0.478010 -0.868463
			 0.376834 -0.374115 -0.847369
			 0.191092 -0.398657 -0.896971
			 0.523407 -0.187625 -0.831169
			 0.717705  0.094751 -0.689871
			-0.202559 -0.766046 -0.610035
			-0.279779 -0.534496 -0.797520
			-0.302013 -0.708901 -0.637376
			-0.514869 -0.784971 -0.344572
			-0.366859 -0.480449 -0.796607
			-0.418469 -0.892039 -0.170735
			-0.200685 -0.880524  0.429423
			-0.303881 -0.931378  0.200477
			-0.317477 -0.684678 -0.656068
			-0.475609 -0.752911 -0.454887
			-0.096903 -0.897741  0.429733
			 0.106393 -0.885089  0.453098
			-0.158619 -0.599133 -0.784780
			-0.294877 -0.738888 -0.605882
			 0.057267 -0.916889  0.395012
			 0.145625 -0.886708  0.438797
			 0.169252 -0.902896  0.395136
			 0.875666 -0.092504  0.473974
			 0.887742  0.029341  0.459405
			 0.958380  0.097587  0.268298
			 0.902340  0.056135  0.427354
			 0.984556  0.149248  0.091508
			 0.725749  0.336869 -0.599839
			 0.761384  0.340013 -0.551983
			 0.740522  0.430850 -0.515748
			 0.714525  0.469079 -0.519055
			 0.674301  0.359630 -0.644969
			 0.670100  0.527331 -0.522387
			 0.565870  0.481471 -0.669311
			 0.827895  0.412851 -0.379663
			 0.851241  0.358689 -0.383054
			 0.830702  0.347807 -0.434700
			 0.814734  0.302923 -0.494415
			 0.899717  0.335700 -0.278952
			 0.932513  0.283886 -0.223225
			 0.991054  0.130929 -0.025894
			 0.964935  0.168320 -0.201418
			 0.708029 -0.555141  0.436478
			 0.796999 -0.341753  0.497993
			 0.839685 -0.119102  0.529852
			 0.539344 -0.681872  0.494124
			 0.520724 -0.605269  0.602077
			 0.644281 -0.619842  0.447993
			 0.565038 -0.606597  0.559260
			 0.578634 -0.660115  0.478989
			 0.495366 -0.826014  0.268910
			 0.268989 -0.959217  0.086875
			 0.124362 -0.989672 -0.071298
			 0.056635 -0.998137 -0.022681
			 0.027120 -0.979972 -0.197281
			-0.100188 -0.981089 -0.165609
			-0.162309 -0.974920 -0.152273
			-0.147092 -0.979372 -0.138542
			-0.081233 -0.992691 -0.089249
			-0.037371 -0.999147  0.017580
			 0.037404 -0.990414  0.132973
			 0.062854 -0.965759  0.251712
			-0.023317 -0.510095 -0.859802
			 0.685449  0.178768 -0.705834
			 0.636498  0.279435 -0.718878
			 0.720821  0.349617 -0.598485
			-0.011899 -0.317284 -0.948256
			 0.199962 -0.244946 -0.948692
			 0.552905 -0.070498 -0.830257
			-0.085004 -0.535955 -0.839956
			-0.144065 -0.340188 -0.929256
			-0.243832 -0.261819 -0.933808
			-0.274235 -0.120153 -0.954127
			-0.326506 -0.378358 -0.866163
			-0.341885 -0.882697 -0.322429
			-0.275521 -0.904158  0.326475
			-0.402141 -0.914775  0.038321
			-0.275770 -0.907092  0.318016
			-0.228872 -0.922702  0.310224
			-0.075741 -0.931727  0.355174
			-0.185224 -0.943097  0.276151
			 0.005225 -0.935862  0.352328
			 0.130844 -0.929407  0.345082
			 0.151061 -0.944190  0.292721
			 0.154721 -0.952323  0.262948
			 0.830322 -0.005350  0.557259
			 0.831450  0.036584  0.554394
			 0.968797  0.089723  0.231047
			 0.925819  0.068778  0.371657
			 0.856645  0.026402  0.515230
			 0.985261  0.098992  0.139507
			 0.764254  0.286724 -0.577672
			 0.710334  0.261490 -0.653490
			 0.698779  0.390826 -0.599135
			 0.695344  0.445375 -0.564037
			 0.693843  0.500513 -0.517753
			 0.616761  0.310878 -0.723160
			 0.645548  0.557775 -0.521684
			 0.549215  0.608687 -0.572593
			 0.403565  0.640704 -0.653172
			 0.501428  0.341159 -0.795098
			 0.439882  0.402015 -0.803049
			 0.354842  0.527542 -0.771872
			 0.854904  0.304170 -0.420261
			 0.907312  0.263381 -0.327744
			 0.802212  0.205586 -0.560527
			 0.871310  0.219994 -0.438658
			 0.993227  0.076023 -0.087862
			 0.991998  0.046876  0.117229
			 0.922758  0.133411 -0.361551
			 0.971683  0.075069 -0.224048
			 0.734893 -0.327752  0.593726
			 0.678877 -0.428233  0.596442
			 0.786386 -0.161641  0.596212
			 0.757592 -0.039846  0.651511
			 0.535006 -0.502680  0.679029
			 0.577892 -0.407788  0.706930
			 0.522555 -0.409500  0.747827
			 0.609073 -0.496459  0.618513
			 0.579646 -0.700228  0.416763
			 0.339838 -0.928528  0.149483
			-0.020624 -0.998977 -0.040236
			-0.068047 -0.988805 -0.132793
			-0.155534 -0.980002 -0.124118
			-0.188389 -0.972070 -0.139962
			-0.141508 -0.981150 -0.131610
			-0.094097 -0.992834 -0.073661
			 0.005435 -0.999969  0.005709
			-0.006818 -0.999761 -0.020776
			 0.062788 -0.995308  0.073622
			 0.120347 -0.976686  0.177766
			 0.479469  0.144244 -0.865623
			 0.375232  0.192958 -0.906625
			 0.561424  0.293877 -0.773588
			 0.593825  0.328490 -0.734483
			-0.135819 -0.238973 -0.961480
			-0.000209 -0.143743 -0.989615
			 0.325258 -0.088422 -0.941482
			 0.153656 -0.012043 -0.988051
			-0.249831 -0.185066 -0.950440
			-0.301067 -0.022769 -0.953331
			-0.249118 -0.036542 -0.967784
			-0.273069  0.052955 -0.960536
			-0.339903 -0.563967 -0.752600
			-0.292941 -0.264768 -0.918740
			-0.480424 -0.720460 -0.500131
			-0.419510 -0.900547  0.114135
			-0.473060 -0.809647 -0.347399
			-0.399329 -0.915136  0.055336
			-0.150031 -0.955049  0.255678
			-0.067953 -0.976769  0.203237
			-0.025930 -0.926016  0.376593
			-0.004605 -0.934840  0.355040
			-0.307201 -0.948385  0.078704
			 0.091464 -0.967308  0.236537
			-0.025399 -0.972726  0.230564
			-0.061451 -0.935929  0.346786
			-0.130374 -0.954961  0.266556
			 0.102146 -0.985093  0.138411
			 0.765984 -0.000610  0.642860
			 0.770468  0.027725  0.636876
			 0.948646  0.059282  0.310737
			 0.924868 -0.004891  0.380258
			 0.829982 -0.003696  0.557777
			 0.757455  0.062027  0.649934
			 0.712688  0.172610 -0.679913
			 0.620158  0.222017 -0.752404
			 0.584975  0.358494 -0.727521
			 0.650559  0.445531 -0.615040
			 0.574227  0.601687 -0.555191
			 0.541449  0.267430 -0.797066
			 0.335493  0.682494 -0.649343
			 0.170380  0.621793 -0.764424
			 0.470647  0.276421 -0.837904
			 0.359387  0.300208 -0.883582
			 0.285703  0.392726 -0.874151
			 0.071097  0.432503 -0.898825
			 0.801161  0.146148 -0.580329
			 0.867775  0.147798 -0.474471
			 0.998348  0.042462 -0.038697
			 0.984353  0.017326  0.175351
			 0.937608  0.085420 -0.337038
			 0.889010  0.121213 -0.441552
			 0.894987  0.115680 -0.430833
			 0.975826  0.056809 -0.211038
			 0.646286 -0.251487  0.720464
			 0.703877 -0.143940  0.695585
			 0.651909 -0.132831  0.746572
			 0.707204 -0.061008  0.704372
			 0.551675 -0.299044  0.778606
			 0.604886 -0.325884  0.726576
			 0.581850 -0.251354  0.773481
			 0.612800 -0.429152  0.663555
			 0.580261 -0.575896  0.575882
			 0.471411 -0.800936  0.369153
			 0.166291 -0.954365  0.248062
			 0.054112 -0.997294  0.049768
			-0.129619 -0.990870  0.037080
			-0.212061 -0.972821 -0.093006
			-0.261820 -0.962224 -0.074673
			-0.167332 -0.982321 -0.083939
			-0.105478 -0.994421 -0.001389
			-0.004695 -0.991707  0.128437
			 0.103961  0.049186 -0.993364
			 0.349782  0.237038 -0.906347
			-0.255844 -0.125350 -0.958557
			-0.135428 -0.104920 -0.985216
			-0.114273  0.000707 -0.993449
			-0.243591  0.000191 -0.969878
			-0.269697  0.072203 -0.960235
			-0.294581  0.079639 -0.952303
			-0.318923 -0.036761 -0.947067
			-0.235147  0.088345 -0.967936
			-0.302403  0.150568 -0.941213
			-0.237112  0.158426 -0.958477
			-0.376420 -0.533005 -0.757768
			-0.423863 -0.148679 -0.893440
			-0.610033 -0.759734 -0.225084
			-0.621198 -0.551261 -0.556978
			-0.470392 -0.867277 -0.162977
			-0.504460 -0.782526 -0.364928
			-0.584881 -0.663455 -0.466627
			-0.297185 -0.940333 -0.165698
			 0.032770 -0.939445  0.341128
			 0.012707 -0.960217  0.278965
			-0.037167 -0.987830  0.151034
			-0.068746 -0.992794 -0.098159
			 0.006720 -0.924515  0.381086
			 0.030249 -0.926824  0.374276
			-0.493750 -0.823659 -0.278922
			-0.170730 -0.977330  0.125209
			-0.112456 -0.951139  0.287557
			-0.015492 -0.940973  0.338126
			 0.001843 -0.929261  0.369418
			-0.190317 -0.959078  0.209637
			 0.690417 -0.056578  0.721196
			 0.727077 -0.000983  0.686555
			 0.698755  0.021721  0.715031
			 0.689082 -0.014167  0.724545
			 0.729895  0.059268  0.680985
			 0.927254  0.006836  0.374371
			 0.812390  0.014058  0.582945
			 0.706363  0.132218  0.695392
			 0.696869  0.087715  0.711815
			 0.647774  0.148315  0.747256
			 0.589470  0.172961 -0.789056
			 0.712408  0.144635 -0.686699
			 0.488296  0.217522 -0.845134
			 0.464610  0.227271 -0.855854
			 0.620839  0.438364 -0.649920
			 0.539739  0.529873 -0.654153
			 0.175320  0.727988 -0.662795
			 0.453906  0.256935 -0.853202
			-0.056573  0.621989 -0.780980
			-0.142856  0.470760 -0.870619
			 0.120198  0.302041 -0.945687
			 0.159754  0.214818 -0.963500
			 0.315967  0.216863 -0.923653
			-0.188806  0.320514 -0.928237
			-0.108978  0.239817 -0.964682
			 0.852300  0.138592 -0.504358
			 0.795369  0.148555 -0.587639
			 0.980356  0.088964  0.176035
			 0.994429  0.071948 -0.077033
			 0.959897  0.092267 -0.264735
			 0.898939  0.107478 -0.424685
			 0.859483  0.131589 -0.493937
			 0.592036 -0.202905  0.779950
			 0.615874 -0.152847  0.772876
			 0.654057 -0.099594  0.749860
			 0.574227 -0.248864  0.779955
			 0.592434 -0.200791  0.780195
			 0.629256 -0.345308  0.696276
			 0.664763 -0.256338  0.701699
			 0.632756 -0.176042  0.754075
			 0.497333 -0.600240  0.626395
			 0.577942 -0.448300  0.681916
			 0.389538 -0.769660  0.505849
			 0.227026 -0.894798  0.384442
			-0.031817 -0.978925  0.201727
			-0.251254 -0.964105  0.085872
			-0.284023 -0.958141 -0.036011
			-0.330844 -0.943387 -0.023720
			-0.326910 -0.945038 -0.005794
			-0.225707 -0.974183 -0.004905
			 0.114489  0.149791 -0.982067
			-0.117697  0.058197 -0.991343
			-0.041669  0.112355 -0.992794
			-0.287322  0.105535 -0.952002
			-0.328711  0.123282 -0.936350
			-0.607748 -0.342485 -0.716483
			-0.498274 -0.285664 -0.818608
			-0.398115 -0.123973 -0.908919
			-0.277791  0.029796 -0.960179
			-0.227639  0.161222 -0.960306
			-0.205285  0.191452 -0.959794
			-0.230698  0.125724 -0.964869
			-0.346876  0.212381 -0.913549
			-0.280838  0.242008 -0.928742
			-0.236463  0.218389 -0.946780
			-0.211623  0.206534 -0.955279
			-0.557902 -0.652512 -0.512809
			-0.534559 -0.453044 -0.713441
			-0.250581 -0.823622 -0.508778
			-0.468221 -0.688945 -0.553285
			-0.028067 -0.955701  0.292998
			 0.015188 -0.932831  0.359994
			-0.038869 -0.989360  0.140199
			-0.093622 -0.987223 -0.128938
			-0.141418 -0.908543 -0.393130
			 0.038487 -0.928239  0.369988
			-0.562650 -0.557192 -0.610706
			-0.284896 -0.957230  0.050440
			-0.249991 -0.960758  0.120201
			-0.161376 -0.962099  0.219827
			-0.050913 -0.955326  0.291136
			 0.014318 -0.942109  0.335000
			 0.660424 -0.079411  0.746682
			 0.630599 -0.127612  0.765546
			 0.644655  0.037156  0.763570
			 0.656816  0.097531  0.747717
			 0.640186 -0.098790  0.761841
			 0.653513 -0.036984  0.756011
			 0.798670  0.040364  0.600415
			 0.898422  0.070686  0.433407
			 0.742773  0.109618  0.660509
			 0.675102  0.160625  0.720026
			 0.619017  0.121622  0.775903
			 0.595058  0.156465  0.788305
			 0.565256  0.178828  0.805299
			 0.609996  0.155420  0.777013
			 0.469203  0.204262 -0.859143
			 0.625120  0.162045 -0.763522
			 0.511934  0.189143 -0.837943
			 0.732903  0.164137 -0.660237
			 0.335705  0.197220 -0.921090
			 0.390608  0.209038 -0.896509
			 0.023086  0.016297 -0.999601
			 0.346731  0.248949 -0.904324
			 0.176632  0.564110 -0.806586
			-0.288655  0.503150 -0.814566
			-0.284653  0.496140 -0.820255
			-0.322136  0.376356 -0.868668
			-0.289793  0.319577 -0.902159
			-0.051207  0.177117 -0.982857
			 0.097511  0.162082 -0.981947
			 0.158788  0.161489 -0.974016
			-0.224214  0.217901 -0.949867
			-0.194294  0.168587 -0.966348
			-0.162412  0.161199 -0.973467
			 0.801849  0.156834 -0.576577
			 0.885170  0.147367  0.441313
			 0.849184  0.183557  0.495170
			 0.933888  0.126361  0.334493
			 0.993937  0.107647 -0.022394
			 0.953082  0.126297 -0.275106
			 0.923378  0.111306 -0.367403
			 0.885760  0.135774 -0.443840
			 0.853607  0.134554 -0.503239
			 0.576842 -0.388629  0.718485
			 0.548809 -0.426504  0.718959
			 0.644891 -0.306372  0.700180
			 0.667921 -0.232812  0.706881
			 0.673713 -0.190109  0.714121
			 0.675571 -0.109875  0.729062
			 0.632687 -0.069591  0.771274
			 0.649773 -0.037345  0.759210
			 0.391315 -0.696648  0.601294
			 0.462907 -0.541510  0.701772
			 0.171452 -0.857544  0.484997
			-0.042393 -0.922628  0.383355
			-0.227396 -0.935000  0.272151
			-0.329503 -0.941033  0.076709
			-0.367406 -0.929978  0.012393
			-0.368916 -0.928993  0.029551
			-0.316785 -0.946762  0.057346
			-0.366823  0.154284 -0.917408
			-0.506205 -0.342350 -0.791551
			-0.412485 -0.126511 -0.902137
			-0.296728  0.048626 -0.953723
			-0.207710  0.223829 -0.952238
			-0.221650  0.171663 -0.959897
			-0.191047  0.218536 -0.956945
			-0.195658  0.216531 -0.956469
			-0.239645  0.223830 -0.944706
			-0.203331  0.216489 -0.954877
			-0.275874 -0.692840 -0.666233
			-0.380951 -0.454080 -0.805411
			-0.494204 -0.300899 -0.815612
			-0.063884 -0.971335  0.228969
			 0.011271 -0.934669  0.355340
			-0.053163 -0.910372  0.410362
			 0.006117 -0.929929  0.367688
			-0.108355 -0.990174  0.088402
			-0.221158 -0.959786 -0.172915
			-0.266856 -0.847099 -0.459576
			-0.245913 -0.960291  0.131788
			-0.143978 -0.969137  0.200111
			-0.061646 -0.960857  0.270098
			-0.032055 -0.939867  0.340034
			 0.624922  0.009579  0.780629
			 0.613483  0.090844  0.784466
			 0.756562  0.182539  0.627928
			 0.782829  0.143760  0.605402
			 0.609432  0.166641  0.775128
			 0.627259  0.143061  0.765558
			 0.568619  0.153510  0.808150
			 0.557463  0.189755  0.808225
			 0.490309  0.237856  0.838464
			 0.483321  0.196077  0.853203
			 0.559680  0.176052  0.809793
			 0.335898  0.233978 -0.912375
			 0.367414  0.216421 -0.904527
			 0.630701  0.181591 -0.754481
			 0.592798  0.191763 -0.782188
			 0.435489  0.191975 -0.879486
			 0.715426  0.183042 -0.674285
			 0.127123  0.162689 -0.978454
			 0.218487  0.199694 -0.955189
			 0.248704  0.210079 -0.945523
			-0.141539  0.208142 -0.967804
			-0.065474  0.142197 -0.987671
			-0.168851  0.173370 -0.970274
			-0.215451  0.190939 -0.957666
			-0.193747  0.176141 -0.965110
			-0.197201  0.147107 -0.969263
			-0.184519  0.133912 -0.973663
			 0.835160  0.145508 -0.530410
			 0.697641  0.173845 -0.695036
			 0.761258  0.152523 -0.630257
			 0.945370  0.125597  0.300834
			 0.987549  0.125167 -0.095290
			 0.902151  0.132615 -0.410532
			 0.454840 -0.516759  0.725314
			 0.584640 -0.384797  0.714232
			 0.635771 -0.278446  0.719905
			 0.670190 -0.167376  0.723071
			 0.668892 -0.021683  0.743043
			 0.638758  0.052640  0.767605
			 0.275659 -0.702055  0.656605
			 0.054352 -0.850543  0.523089
			-0.061828 -0.851167  0.521241
			-0.188295 -0.918439  0.347871
			-0.287801 -0.943928  0.161772
			-0.368654 -0.927249  0.065603
			-0.358332 -0.931943  0.055508
			-0.321930 -0.944801  0.060929
			-0.371872 -0.926996  0.048882
			-0.263966 -0.959843  0.094992
			-0.388881 -0.068360 -0.918748
			-0.255109  0.150782 -0.955083
			-0.313114  0.080585 -0.946291
			-0.220565  0.212418 -0.951961
			-0.195624  0.195729 -0.960948
			-0.208962  0.212733 -0.954505
			-0.359385 -0.614643 -0.702180
			-0.446768 -0.127878 -0.885464
			-0.414283 -0.336017 -0.845850
			-0.399701 -0.235620 -0.885845
			-0.412014 -0.098112 -0.905880
			-0.230784 -0.972959  0.009451
			-0.030592 -0.953802  0.298874
			-0.233637 -0.969553 -0.073347
			-0.156114 -0.985779  0.062188
			-0.068764 -0.902834  0.424454
			-0.083374 -0.921211  0.380024
			-0.177208 -0.885699  0.429109
			-0.214188 -0.856906  0.468866
			-0.333221 -0.863217 -0.379236
			-0.159067 -0.973736  0.162897
			-0.066343 -0.953158  0.295109
			-0.148279 -0.961720  0.230452
			-0.108381 -0.936908  0.332352
			 0.589770  0.125756  0.797720
			 0.792690  0.101352  0.601141
			 0.555496  0.177814  0.812284
			 0.679627  0.122207  0.723306
			 0.760726  0.136035  0.634658
			 0.483181  0.152480  0.862140
			 0.576970  0.100222  0.810593
			 0.524931  0.151613  0.837533
			 0.529868  0.122042  0.839253
			 0.547679  0.188652  0.815143
			 0.493675  0.250270  0.832856
			 0.372745  0.310372  0.874489
			 0.385574  0.275403  0.880617
			 0.336400  0.243747  0.909628
			 0.480460  0.182464  0.857826
			 0.393863  0.194464  0.898363
			 0.202669  0.244969 -0.948112
			 0.123563  0.261389 -0.957292
			 0.195371  0.242056 -0.950389
			 0.261583  0.207766 -0.942554
			 0.178788  0.231286 -0.956317
			 0.563641  0.177471 -0.806729
			 0.304083  0.188845 -0.933740
			 0.415324  0.178430 -0.892002
			-0.008161  0.171963 -0.985070
			 0.017503  0.193203 -0.981003
			 0.058973  0.211843 -0.975523
			-0.158514  0.176465 -0.971459
			-0.189979  0.165235 -0.967784
			-0.217345  0.222017 -0.950510
			-0.213106  0.219086 -0.952149
			-0.217180  0.228131 -0.949099
			-0.218997  0.169805 -0.960836
			-0.226666  0.111663 -0.967550
			-0.211401  0.107456 -0.971475
			 0.814275  0.139905 -0.563368
			 0.654652  0.159103 -0.738997
			 0.728875  0.139897 -0.670202
			 0.949403  0.132135  0.284912
			 0.985798  0.124376 -0.112843
			 0.975147  0.141790 -0.170247
			 0.964780  0.142708 -0.220985
			 0.884626  0.126495 -0.448816
			 0.805868  0.122188 -0.579351
			 0.236204 -0.704085  0.669681
			 0.294684 -0.644202  0.705808
			 0.296483 -0.650768  0.698998
			 0.560861 -0.392043  0.729203
			 0.482524 -0.475295  0.735707
			 0.592743 -0.290145  0.751313
			 0.613240 -0.179378  0.769260
			 0.657229 -0.073162  0.750132
			 0.626285  0.050321  0.777969
			 0.605804  0.102814  0.788943
			 0.058825 -0.779813  0.623243
			 0.055957 -0.849520  0.524581
			-0.164098 -0.930924  0.326271
			-0.269864 -0.947060  0.173925
			-0.265365 -0.959570  0.093842
			-0.372002 -0.927634  0.033310
			-0.328824 -0.939496  0.096033
			-0.235599 -0.963994  0.123326
			-0.433367 -0.899468  0.056124
			-0.388578 -0.918161  0.077381
			-0.268853  0.187942 -0.944667
			-0.404654 -0.012060 -0.914390
			-0.349591  0.110606 -0.930351
			-0.304331  0.168899 -0.937473
			-0.242040  0.204743 -0.948418
			-0.380617 -0.626605 -0.680071
			-0.452922 -0.105519 -0.885284
			-0.412006  0.052067 -0.909692
			-0.452114 -0.001834 -0.891958
			-0.487609  0.001429 -0.873061
			-0.453239 -0.499140 -0.738535
			-0.500935 -0.260952 -0.825207
			-0.471895 -0.155964 -0.867750
			-0.146335 -0.894917  0.421557
			-0.106040 -0.961135  0.254902
			-0.331985 -0.911685 -0.242107
			-0.385935 -0.803933 -0.452489
			-0.236597 -0.951312  0.197552
			-0.389417 -0.920237 -0.038962
			-0.191537 -0.904258  0.381616
			-0.268815 -0.845448  0.461471
			-0.331760 -0.832206  0.444262
			-0.307816 -0.812088  0.495745
			-0.337718 -0.823646  0.455581
			-0.434771 -0.780547  0.449134
			-0.279514 -0.944016  0.175232
			-0.287078 -0.906725  0.308928
			 0.835013  0.138186  0.532596
			 0.966597  0.125028  0.223736
			 0.891905  0.123211  0.435113
			 0.837979  0.147233  0.525465
			 0.721102  0.113397  0.683487
			 0.342244  0.167284  0.924600
			 0.324164  0.124157  0.937818
			 0.445605  0.094882  0.890188
			 0.616198  0.070067  0.784469
			 0.481437  0.058652  0.874516
			 0.534655  0.145909  0.832379
			 0.459254  0.147747  0.875932
			 0.430981  0.103843  0.896366
			 0.470589  0.034055  0.881695
			 0.529429  0.182943  0.828394
			 0.504181  0.135835  0.852848
			 0.441945  0.237556  0.865015
			 0.403592  0.302609  0.863447
			 0.252511  0.364420  0.896346
			 0.184604  0.351845  0.917675
			 0.250505  0.306836  0.918204
			 0.120611  0.265559  0.956521
			 0.196478  0.224816  0.954387
			 0.283085  0.214495  0.934802
			 0.269802  0.194309  0.943107
			 0.008989  0.247595 -0.968822
			-0.100171  0.244355 -0.964498
			-0.015970  0.249790 -0.968168
			 0.032752  0.241408 -0.969871
			 0.038516  0.213765 -0.976125
			 0.126720  0.188221 -0.973917
			-0.013496  0.233942 -0.972157
			 0.512622  0.161135 -0.843359
			 0.271443  0.176991 -0.946041
			 0.339722  0.162818 -0.926326
			-0.129356  0.208574 -0.969414
			-0.237895  0.155764 -0.958720
			-0.253933  0.218736 -0.942164