<?xml version="1.0"?>
<VTKFile type="PolyData" version="0.1" byte_order="LittleEndian" compressor="vtkZLibDataCompressor">
	<PolyData>
		<Piece NumberOfPoints="8778" NumberOfVerts="0" NumberOfLines="0" NumberOfStrips="0" NumberOfPolys="17552">
		<PointData Normals="Normals">
		<DataArray type="Float32" Name="Normals" NumberOfComponents="3" format="ascii">
			-0.158764 -0.983298  0.088992
			-0.262584 -0.964770 -0.016374
			 0.003461 -0.989495 -0.144528
			-0.034246 -0.996035  0.082112
			 0.059215 -0.997132 -0.047138
			-0.261234 -0.951400  0.163080
			-0.437243 -0.895887  0.078775
			-0.149959 -0.968823 -0.197219
			 0.165457 -0.942996 -0.288760
			 0.103346 -0.922443 -0.372047
			 0.102841 -0.986748 -0.125504
			 0.019435 -0.999768 -0.009326
			-0.138616 -0.972432  0.187513
			-0.071203 -0.988806  0.131123
			-0.355143 -0.899699  0.253801
			-0.499887 -0.823026  0.269706
			-0.447315 -0.877810  0.171343
			-0.359836 -0.930207 -0.072334
			-0.584365 -0.784081  0.209126
			-0.579567 -0.802898  0.139486
			-0.539930 -0.841268 -0.027265
			-0.102398 -0.933845 -0.342708
			 0.109854 -0.867284 -0.485542
			 0.145807 -0.910733 -0.386401
			 0.193340 -0.822087 -0.535530
			 0.040822 -0.976590 -0.211200
			-0.042675 -0.998899 -0.019497
			-0.094425 -0.963270  0.251386
			-0.293092 -0.915755  0.274754
			-0.095541 -0.993583  0.060539
			-0.116569 -0.978671  0.169162
			-0.112618 -0.957978  0.263811
			-0.575381 -0.735325  0.358098
			-0.628173 -0.694621  0.350570
			-0.353091 -0.890039 -0.288370
			-0.623752 -0.734155  0.268235
			-0.571190 -0.816607  0.083036
			-0.622916 -0.752006  0.215554
			-0.377499 -0.863549 -0.334333
			-0.456597 -0.872968 -0.171600
			-0.037195 -0.835123 -0.548804
			 0.180186 -0.741879 -0.645871
			 0.068073 -0.875398 -0.478586
			 0.120211 -0.777936 -0.616737
			 0.201374 -0.680162 -0.704861
			-0.026390 -0.928945 -0.369277
			-0.103005 -0.987039 -0.123065
			-0.143670 -0.908299  0.392875
			-0.091833 -0.922344  0.375298
			-0.333088 -0.848779  0.410642
			-0.564874 -0.719600  0.403849
			-0.156508 -0.987123  0.033065
			-0.140630 -0.975091  0.171527
			-0.176665 -0.938997  0.295083
			-0.144890 -0.894118  0.423745
			-0.673511 -0.542661  0.501898
			-0.672267 -0.588510  0.449124
			-0.645209 -0.666570  0.373350
			-0.652177 -0.596526  0.467785
			-0.635988 -0.687177  0.351152
			-0.488506 -0.870082 -0.065728
			-0.574769 -0.768891  0.280085
			-0.519128 -0.846371  0.119007
			-0.153935 -0.837746 -0.523914
			-0.306103 -0.869089 -0.388568
			-0.420989 -0.842069 -0.337176
			 0.084948 -0.733769 -0.674067
			 0.206460 -0.662495 -0.720052
			 0.169876 -0.639945 -0.749408
			 0.069504 -0.853881 -0.515807
			 0.049736 -0.779341 -0.624623
			 0.075777 -0.763566 -0.641269
			 0.077615 -0.692516 -0.717215
			 0.128865 -0.673681 -0.727700
			 0.228365 -0.612144 -0.757053
			 0.149534 -0.632139 -0.760289
			 0.202099 -0.615148 -0.762069
			-0.115339 -0.959858 -0.255673
			-0.055226 -0.940325 -0.335768
			 0.086217 -0.871650 -0.482487
			-0.126925 -0.983344 -0.130096
			-0.224412 -0.816141  0.532497
			-0.428565 -0.717370  0.549284
			-0.144933 -0.847070  0.511339
			-0.180808 -0.983006 -0.031733
			-0.215279 -0.962930  0.162545
			-0.215725 -0.913712  0.344373
			-0.179756 -0.899174  0.398967
			-0.190194 -0.851970  0.487825
			-0.215607 -0.813334  0.540371
			-0.192784 -0.789833  0.582236
			-0.599514 -0.525821  0.603403
			-0.636410 -0.428356  0.641478
			-0.681215 -0.475242  0.556858
			-0.634657 -0.635749  0.439356
			-0.632785 -0.508433  0.584020
			-0.622714 -0.578997  0.526297
			-0.632336 -0.659813  0.405952
			-0.426059 -0.859579 -0.282131
			-0.477136 -0.876575 -0.062903
			-0.561536 -0.793966  0.233014
			-0.590334 -0.675742  0.441450
			-0.577874 -0.733309  0.358217
			-0.491073 -0.870586  0.030453
			-0.606019 -0.771519  0.193648
			 0.041874 -0.691667 -0.721001
			-0.183229 -0.771143 -0.609725
			-0.285427 -0.780798 -0.555775
			 0.103622 -0.619722 -0.777950
			 0.196828 -0.614413 -0.764039
			 0.159270 -0.813065 -0.559963
			 0.090415 -0.778862 -0.620645
			 0.012969 -0.706618 -0.707476
			 0.034078 -0.681199 -0.731305
			 0.084891 -0.640086 -0.763599
			 0.134829 -0.631259 -0.763762
			 0.188922 -0.620515 -0.761098
			-0.079488 -0.972633 -0.218325
			 0.007553 -0.924788 -0.380407
			 0.219388 -0.837035 -0.501240
			 0.061299 -0.924215 -0.376920
			 0.242940 -0.822734 -0.513896
			-0.292923 -0.711985  0.638180
			-0.441243 -0.604483  0.663253
			-0.102740 -0.978309 -0.179879
			-0.203939 -0.978892 -0.013381
			-0.264987 -0.942267  0.204731
			-0.139420 -0.930870  0.337704
			-0.139645 -0.887600  0.438936
			-0.171739 -0.872084  0.458231
			-0.218540 -0.815935  0.535247
			-0.241493 -0.785946  0.569183
			-0.304729 -0.699062  0.646879
			-0.332484 -0.646199  0.686936
			-0.484195 -0.523314  0.701212
			-0.637513 -0.421440  0.644954
			-0.586802 -0.436289  0.682140
			-0.610682 -0.503275  0.611377
			-0.608618 -0.462398  0.644804
			-0.591117 -0.585442  0.554832
			-0.596885 -0.509012  0.620189
			-0.339249 -0.802985 -0.490026
			-0.444100 -0.863181 -0.240194
			-0.653719 -0.698497  0.291123
			-0.638987 -0.647829  0.414745
			-0.503305 -0.855983 -0.118223
			-0.577862 -0.811766  0.084330
			-0.667050 -0.724110  0.175240
			-0.700955 -0.647925  0.298088
			-0.065025 -0.674664 -0.735255
			-0.192856 -0.686671 -0.700921
			-0.061006 -0.624221 -0.778862
			 0.040449 -0.603633 -0.796235
			 0.123991 -0.605530 -0.786104
			 0.167226 -0.642801 -0.747558
			 0.181509 -0.647016 -0.740557
			 0.142044 -0.643569 -0.752092
			 0.282348 -0.738964 -0.611728
			 0.212233 -0.740282 -0.637918
			 0.062340 -0.718179 -0.693061
			-0.022040 -0.649575 -0.759978
			-0.009518 -0.659528 -0.751620
			 0.017404 -0.639307 -0.768755
			 0.057712 -0.642826 -0.763835
			 0.096449 -0.660594 -0.744522
			 0.210892 -0.883017 -0.419292
			 0.355315 -0.792920 -0.495005
			 0.464187 -0.743518 -0.481364
			-0.034443 -0.961829 -0.271477
			 0.391590 -0.777605 -0.491922
			 0.354848 -0.724924 -0.590397
			-0.047763 -0.989607 -0.135631
			-0.116252 -0.992381  0.040812
			-0.143225 -0.964558  0.221618
			 0.164137 -0.956213  0.242313
			 0.015161 -0.921919  0.387085
			 0.114878 -0.974547  0.192513
			 0.102336 -0.895020  0.434128
			-0.040606 -0.887104  0.459781
			-0.178091 -0.850832  0.494336
			-0.302243 -0.789758  0.533790
			-0.316510 -0.728662  0.607349
			-0.451336 -0.543109  0.708045
			-0.440265 -0.622188  0.647340
			-0.635508 -0.415824  0.650554
			-0.633729 -0.401787  0.661026
			-0.599745 -0.418851  0.681813
			-0.565684 -0.500763  0.655163
			-0.587452 -0.460058  0.665768
			-0.625697 -0.568832  0.533791
			-0.657174 -0.625340  0.420798
			-0.591331 -0.471288  0.654381
			-0.617197 -0.493607  0.612715
			-0.573059 -0.462173  0.676756
			-0.298374 -0.697758 -0.651234
			-0.408183 -0.780474 -0.473548
			-0.493041 -0.791170 -0.361886
			-0.591749 -0.802804 -0.073061
			-0.661520 -0.749878 -0.008619
			-0.729016 -0.640825  0.240579
			-0.746352 -0.660171  0.084458
			-0.774390 -0.573859  0.266468
			-0.729323 -0.589717  0.346876
			-0.234436 -0.603555 -0.762077
			-0.091578 -0.592519 -0.800334
			 0.025441 -0.576490 -0.816708
			 0.054699 -0.608819 -0.791421
			 0.145010 -0.669798 -0.728247
			 0.159774 -0.675977 -0.719394
			 0.071001 -0.638147 -0.766634
			 0.112488 -0.662399 -0.740658
			 0.470388 -0.642227 -0.605211
			 0.365279 -0.668076 -0.648263
			 0.161762 -0.694491 -0.701082
			 0.259444 -0.648039 -0.716055
			 0.072393 -0.651624 -0.755079
			-0.034043 -0.639508 -0.768030
			-0.010972 -0.642093 -0.766549
			 0.003870 -0.626909 -0.779083
			 0.027845 -0.657998 -0.752505
			 0.102220 -0.675905 -0.729865
			 0.066257 -0.660984 -0.747469
			 0.164116 -0.939092 -0.301946
			 0.423306 -0.849445 -0.315048
			 0.443281 -0.801254 -0.401863
			 0.532001 -0.713520 -0.455920
			 0.569322 -0.682322 -0.458595
			 0.524312 -0.672680 -0.522110
			 0.573388 -0.638457 -0.513418
			 0.221284 -0.961628 -0.162187
			 0.140193 -0.989915  0.020340
			 0.436549 -0.883428  0.170238
			 0.320296 -0.894622  0.311548
			 0.450448 -0.890730  0.060805
			 0.415915 -0.909391  0.004794
			 0.385512 -0.875432  0.291546
			 0.265342 -0.880603  0.392597
			 0.149281 -0.892808  0.424982
			-0.032655 -0.886999  0.460616
			-0.154373 -0.862361  0.482185
			-0.282228 -0.828322  0.483973
			-0.392523 -0.700526  0.595978
			-0.381767 -0.774871  0.503815
			-0.438698 -0.719058  0.538979
			-0.476985 -0.644613  0.597460
			-0.533119 -0.587824  0.608479
			-0.658870 -0.419040  0.624737
			-0.651477 -0.459348  0.603801
			-0.597620 -0.419640  0.683193
			-0.617555 -0.427876  0.659961
			-0.568241 -0.440796  0.694839
			-0.612858 -0.530775  0.585391
			-0.700420 -0.540340  0.466310
			-0.579776 -0.425605  0.694781
			-0.608521 -0.415602  0.676001
			-0.600925 -0.388775  0.698386
			-0.637524 -0.433708  0.636757
			-0.685691 -0.498668  0.530244
			-0.559490 -0.438767  0.703174
			-0.394777 -0.680351 -0.617474
			-0.583623 -0.758946 -0.288764
			-0.495742 -0.683735 -0.535487
			-0.711440 -0.684934 -0.157220
			-0.781351 -0.596756  0.182679
			-0.757830 -0.633177 -0.157421
			-0.796358 -0.603776  0.035629
			-0.815221 -0.566090  0.122300
			-0.748551 -0.547922  0.373434
			-0.820313 -0.550461  0.155176
			-0.792661 -0.545992  0.271259
			-0.380334 -0.606023 -0.698629
			-0.331155 -0.554311 -0.763594
			-0.208653 -0.556335 -0.804335
			-0.084423 -0.556230 -0.826729
			-0.057872 -0.535061 -0.842829
			-0.009367 -0.596147 -0.802821
			 0.148422 -0.682943 -0.715235
			 0.153949 -0.669006 -0.727139
			 0.007571 -0.604050 -0.796911
			 0.117212 -0.634168 -0.764260
			 0.502111 -0.577349 -0.643858
			 0.550149 -0.590165 -0.590797
			 0.425652 -0.589511 -0.686511
			 0.115349 -0.610793 -0.783343
			 0.392075 -0.533713 -0.749285
			 0.277588 -0.552985 -0.785591
			 0.001579 -0.633965 -0.773361
			 0.085664 -0.567886 -0.818637
			 0.095954 -0.660539 -0.744635
			 0.146057 -0.615021 -0.774865
			 0.107264 -0.558263 -0.822701
			 0.128327 -0.616048 -0.777185
			 0.493232 -0.854646 -0.162179
			 0.586138 -0.727824 -0.355969
			 0.592991 -0.768391 -0.240702
			 0.613358 -0.743749 -0.265760
			 0.541357 -0.752326 -0.375418
			 0.489686 -0.703574 -0.514967
			 0.520711 -0.608121 -0.599207
			 0.579336 -0.808576  0.102835
			 0.606255 -0.792574 -0.065429
			 0.497957 -0.833324  0.240020
			 0.486678 -0.821874  0.296087
			 0.395964 -0.839835  0.371335
			 0.202224 -0.876341  0.437187
			 0.007200 -0.877035  0.480373
			 0.071321 -0.870864  0.486323
			-0.031045 -0.876695  0.480043
			-0.180142 -0.858640  0.479881
			-0.243804 -0.828874  0.503515
			-0.359544 -0.792188  0.493119
			-0.434916 -0.744776  0.506119
			-0.511943 -0.709075  0.484899
			-0.506440 -0.662905  0.551431
			-0.525587 -0.627667  0.574276
			-0.573835 -0.601633  0.555654
			-0.690281 -0.448142  0.568050
			-0.654499 -0.436251  0.617508
			-0.676028 -0.499036  0.542172
			-0.618397 -0.420116  0.664144
			-0.570912 -0.414305  0.708809
			-0.642231 -0.559309  0.524131
			-0.581804 -0.383365  0.717311
			-0.616920 -0.359452  0.700145
			-0.617497 -0.345400  0.706680
			-0.608303 -0.341680  0.716395
			-0.626306 -0.309009  0.715720
			-0.662867 -0.442393  0.604066
			-0.719635 -0.507004  0.474417
			-0.636035 -0.655142 -0.407737
			-0.500217 -0.602292 -0.622115
			-0.673163 -0.636410 -0.376609
			-0.791755 -0.602918 -0.098048
			-0.823398 -0.566941  0.024348
			-0.772866 -0.521307  0.361825
			-0.845635 -0.533544 -0.015237
			-0.839643 -0.507088  0.194582
			-0.872359 -0.479999  0.092691
			-0.844040 -0.473761  0.251291
			-0.447697 -0.535442 -0.716149
			-0.241650 -0.483494 -0.841332
			-0.342793 -0.494910 -0.798472
			-0.150844 -0.511408 -0.845995
			-0.101179 -0.510410 -0.853958
			-0.149381 -0.424938 -0.892812
			-0.155288 -0.460849 -0.873787
			 0.200144 -0.558535 -0.804972
			-0.069362 -0.504127 -0.860840
			 0.035261 -0.554163 -0.831661
			-0.062910 -0.416590 -0.906915
			 0.175332 -0.473746 -0.863031
			 0.495925 -0.469560 -0.730460
			 0.549539 -0.515166 -0.657732
			 0.213552 -0.505872 -0.835756
			 0.390808 -0.410174 -0.824030
			 0.264770 -0.412667 -0.871552
			 0.159409 -0.467181 -0.869672
			 0.145832 -0.577258 -0.803434
			 0.239434 -0.403046 -0.883304
			 0.196344 -0.448711 -0.871842
			 0.250029 -0.343705 -0.905181
			 0.218361 -0.465357 -0.857765
			 0.608713 -0.790864 -0.063260
			 0.590298 -0.784421 -0.190348
			 0.529362 -0.810103 -0.252010
			 0.481026 -0.757241 -0.441814
			 0.483093 -0.671161 -0.562285
			 0.456976 -0.648645 -0.608632
			 0.435602 -0.552505 -0.710626
			 0.492229 -0.458005 -0.740231
			 0.614334 -0.784096  0.088239
			 0.601649 -0.778098  0.180503
			 0.556977 -0.780486  0.283935
			 0.532567 -0.781878  0.324099
			 0.406656 -0.824533  0.393416
			 0.288350 -0.843450  0.453261
			 0.146841 -0.860057  0.488611
			 0.017890 -0.856981  0.515037
			-0.116448 -0.854447  0.506321
			-0.120160 -0.871695  0.475089
			-0.347107 -0.828811  0.438850
			-0.435333 -0.764017  0.476196
			-0.551547 -0.727440  0.408199
			-0.494008 -0.775235  0.393659
			-0.548013 -0.653314  0.522363
			-0.571262 -0.694184  0.437912
			-0.616461 -0.625621  0.478095
			-0.730833 -0.473795  0.491327
			-0.717469 -0.403047  0.568147
			-0.688962 -0.538916  0.484665
			-0.603891 -0.371914  0.704979
			-0.663572 -0.367343  0.651714
			-0.655257 -0.573508  0.491657
			-0.606036 -0.324502  0.726236
			-0.626883 -0.421863  0.655018
			-0.568942 -0.311628  0.761047
			-0.621456 -0.286193  0.729305
			-0.601593 -0.276192  0.749535
			-0.628556 -0.286750  0.722974
			-0.644420 -0.233797  0.728053
			-0.714216 -0.483044  0.506521
			-0.575174 -0.592894 -0.563606
			-0.716376 -0.620912 -0.318236
			-0.799845 -0.571559 -0.183218
			-0.794295 -0.495068  0.352140
			-0.810389 -0.510699 -0.287150
			-0.868753 -0.455344 -0.194759
			-0.908032 -0.416395 -0.045747
			-0.906858 -0.395748  0.144887
			-0.947831 -0.315851  0.043076
			-0.910406 -0.359463  0.204812
			-0.932546 -0.318931  0.169237
			-0.568430 -0.497648 -0.655159
			-0.437461 -0.448241 -0.779556
			-0.193643 -0.377101 -0.905703
			-0.278212 -0.415055 -0.866214
			-0.108435 -0.360574 -0.926406
			-0.146802 -0.366554 -0.918742
			-0.122157 -0.270857 -0.954837
			 0.245797 -0.356814 -0.901259
			 0.072783 -0.387309 -0.919072
			 0.009828 -0.249448 -0.968338
			-0.069489 -0.194274 -0.978483
			 0.193549 -0.240969 -0.951038
			 0.522430 -0.408930 -0.748227
			 0.461623 -0.338259 -0.820052
			 0.359708 -0.284327 -0.888689
			 0.274524 -0.269421 -0.923065
			 0.271095 -0.187183 -0.944177
			 0.305693 -0.179641 -0.935030
			 0.607181 -0.793575 -0.039622
			 0.595395 -0.802333 -0.042037
			 0.486496 -0.752464 -0.443981
			 0.515766 -0.784950 -0.343276
			 0.591723 -0.800992 -0.090973
			 0.593082 -0.777852 -0.207848
			 0.493322 -0.701668 -0.514098
			 0.551012 -0.591859 -0.588293
			 0.576478 -0.535005 -0.617611
			 0.460164 -0.598845 -0.655465
			 0.497456 -0.449517 -0.741938
			 0.449926 -0.393348 -0.801775
			 0.499635 -0.289793 -0.816324
			 0.487317 -0.312223 -0.815499
			 0.622060 -0.764027  0.171184
			 0.595985 -0.793947  0.120210
			 0.611232 -0.769410  0.185482
			 0.598840 -0.763380  0.242159
			 0.568524 -0.769183  0.291786
			 0.450587 -0.801854  0.392429
			 0.528220 -0.784428  0.325048
			 0.305084 -0.843428  0.442214
			 0.110421 -0.875236  0.470923
			-0.012345 -0.946351  0.322905
			-0.285301 -0.913160  0.291104
			-0.437785 -0.839165  0.322717
			-0.564766 -0.755797  0.331376
			-0.585553 -0.733154  0.345850
			-0.544719 -0.791939  0.275887
			-0.622766 -0.686837  0.374723
			-0.689806 -0.607986  0.393091
			-0.673681 -0.581128  0.456556
			-0.731170 -0.532770  0.426084
			-0.779423 -0.472377  0.411534
			-0.814424 -0.403712  0.416809
			-0.720094 -0.349279  0.599557
			-0.782947 -0.345297  0.517458
			-0.657076 -0.334058  0.675763
			-0.614532 -0.324937  0.718865
			-0.625725 -0.286515  0.725518
			-0.635571 -0.256194  0.728296
			-0.699358 -0.471606  0.537108
			-0.611197 -0.408577  0.677866
			-0.568138 -0.281347  0.773345
			-0.612490 -0.195715  0.765866
			-0.586185 -0.166615  0.792860
			-0.621979 -0.219026  0.751778
			-0.655675 -0.204905  0.726708
			-0.664295 -0.143975  0.733473
			-0.654540 -0.154386  0.740097
			-0.686647 -0.569635 -0.451699
			-0.725402 -0.527475 -0.442223
			-0.804153 -0.412871  0.427640
			-0.883944 -0.364600  0.292762
			-0.698363 -0.446970 -0.559024
			-0.813375 -0.381291 -0.439362
			-0.907996 -0.296992 -0.295531
			-0.960788 -0.242340 -0.134751
			-0.977325 -0.198882  0.072683
			-0.989625 -0.116520 -0.084062
			-0.960696 -0.170797  0.218840
			-0.979069 -0.112358  0.169702
			-0.566878 -0.396257 -0.722239
			-0.336823 -0.359157 -0.870378
			-0.470717 -0.306033 -0.827508
			-0.168499 -0.255330 -0.952058
			-0.243254 -0.257850 -0.935062
			-0.110689 -0.223799 -0.968329
			-0.025305 -0.085587 -0.996009
			-0.049067 -0.149331 -0.987569
			 0.080450 -0.124619 -0.988938
			 0.008047 -0.053787 -0.998520
			 0.215587 -0.109794 -0.970292
			 0.450801 -0.219046 -0.865331
			 0.368029 -0.187914 -0.910628
			 0.275981 -0.129767 -0.952363
			 0.217797 -0.055311 -0.974425
			 0.288449 -0.086777 -0.953555
			 0.389797 -0.129910 -0.911691
			 0.599602 -0.799325  0.039452
			 0.537292 -0.673432 -0.507746
			 0.606867 -0.686809 -0.400007
			 0.635353 -0.772125  0.012222
			 0.652149 -0.729367 -0.206701
			 0.677438 -0.637711 -0.366610
			 0.642569 -0.525838 -0.557315
			 0.632698 -0.437096 -0.639250
			 0.618132 -0.392208 -0.681238
			 0.541622 -0.490995 -0.682327
			 0.633577 -0.356110 -0.686852
			 0.619569 -0.282981 -0.732159
			 0.514718 -0.320902 -0.795039
			 0.553210 -0.221763 -0.802982
			 0.483870 -0.164833 -0.859476
			 0.525236 -0.192481 -0.828902
			 0.589784 -0.784550  0.191405
			 0.613399 -0.779147  0.129118
			 0.563478 -0.789566  0.243060
			 0.423924 -0.831747  0.358450
			 0.472308 -0.833577  0.286487
			 0.239421 -0.911433  0.334615
			 0.078657 -0.982804  0.167063
			-0.158956 -0.981557  0.106207
			-0.364978 -0.925900  0.097470
			-0.487214 -0.859211  0.156136
			-0.589107 -0.770195  0.244445
			-0.627451 -0.734571  0.258284
			-0.582971 -0.798984  0.147545
			-0.700407 -0.657835  0.276917
			-0.745981 -0.575491  0.335146
			-0.741078 -0.554818  0.378128
			-0.775184 -0.510290  0.372417
			-0.796343 -0.482235  0.365085
			-0.792202 -0.515563  0.326512
			-0.863065 -0.434399  0.257712
			-0.891671 -0.338595  0.300461
			-0.848108 -0.324186  0.419065
			-0.787906 -0.327024  0.521784
			-0.726823 -0.303778  0.615992
			-0.654483 -0.273046  0.705052
			-0.632748 -0.238545  0.736700
			-0.637637 -0.200163  0.743878
			-0.755627 -0.380846  0.532901
			-0.656987 -0.312117  0.686259
			-0.658349 -0.143734  0.738862
			-0.678728 -0.033094  0.733644
			-0.641826 -0.138387  0.754261
			-0.701672 -0.024894  0.712065
			-0.652524 -0.153272  0.742106
			-0.669844 -0.083690  0.737770
			-0.672519 -0.069343  0.736824
			-0.664714 -0.002540  0.747094
			-0.682544 -0.001643  0.730842
			-0.917441 -0.221644  0.330417
			-0.702057 -0.322019 -0.635153
			-0.829180 -0.212710 -0.516929
			-0.946150 -0.102258 -0.307153
			-0.999830 -0.015195 -0.010489
			-0.993870 -0.030069  0.106384
			-0.970823  0.019629 -0.238991
			-0.975040  0.024318  0.220692
			-0.986881  0.083130  0.138400
			-0.577791 -0.236954 -0.781032
			-0.296982 -0.210039 -0.931496
			-0.381614 -0.138663 -0.913861
			-0.464319 -0.108272 -0.879025
			-0.167209 -0.112968 -0.979428
			-0.261825 -0.132991 -0.955909
			-0.293163 -0.033887 -0.955462
			-0.011740 -0.017934 -0.999770
			 0.077442 -0.002271 -0.996994
			-0.000503  0.020385 -0.999792
			-0.105105 -0.021400 -0.994231
			 0.137199 -0.033199 -0.989987
			 0.256545 -0.067350 -0.964183
			 0.229982 -0.028901 -0.972766
			 0.160528 -0.019922 -0.986830
			 0.321787 -0.082205 -0.943237
			 0.263689 -0.025159 -0.964280
			 0.252638 -0.016993 -0.967412
			 0.259671 -0.007953 -0.965664
			 0.490272 -0.105710 -0.865135
			 0.435852 -0.078632 -0.896577
			 0.665999 -0.738432  0.105660
			 0.686727 -0.726778 -0.014096
			 0.703566 -0.665302 -0.249738
			 0.674038 -0.579513 -0.458080
			 0.685894 -0.526660 -0.502173
			 0.696227 -0.338760 -0.632858
			 0.658111 -0.290135 -0.694774
			 0.655818 -0.207210 -0.725925
			 0.603402 -0.156277 -0.781974
			 0.542161 -0.113779 -0.832536
			 0.582555 -0.787698  0.200401
			 0.609478 -0.773635  0.173279
			 0.551997 -0.811288  0.192644
			 0.455095 -0.872232  0.179167
			 0.382131 -0.887882  0.256205
			 0.259992 -0.951878  0.162270
			 0.143095 -0.989058  0.035877
			-0.008029 -0.999561  0.028510
			-0.156937 -0.986457 -0.047688
			-0.336425 -0.940913 -0.038738
			-0.473753 -0.880416 -0.020644
			-0.572797 -0.819278 -0.026211
			-0.662507 -0.745752  0.070272
			-0.756099 -0.633443  0.164514
			-0.742011 -0.617915  0.260003
			-0.764111 -0.529700  0.368174
			-0.768191 -0.581882  0.267011
			-0.816178 -0.542788  0.198077
			-0.874857 -0.473414  0.102494
			-0.919184 -0.362735  0.153374
			-0.877402 -0.301427  0.373239
			-0.921744 -0.293049  0.253990
			-0.816191 -0.280822  0.504947
			-0.740049 -0.232953  0.630921
			-0.667401 -0.195398  0.718607
			-0.651640 -0.128967  0.747484
			-0.758337 -0.191079  0.623228
			-0.867472 -0.219547  0.446421
			-0.799745 -0.007013  0.600299
			-0.710746  0.106787  0.695296
			-0.676475 -0.043209  0.735197
			-0.727914  0.075243  0.681528
			-0.764790  0.227463  0.602791
			-0.847668  0.067713  0.526188
			-0.804569  0.113579  0.582897
			-0.684901  0.045218  0.727232
			-0.679003 -0.030491  0.733502
			-0.693362  0.074884  0.716688
			-0.690226  0.179102  0.701078
			-0.719788  0.162883  0.674814
			-0.951676 -0.032267  0.305404
			-0.694039 -0.167710 -0.700131
			-0.734712 -0.032244 -0.677613
			-0.863907 -0.068675 -0.498948
			-0.874874  0.062092 -0.480355
			-0.996964  0.074235 -0.023499
			-0.879207  0.185598 -0.438804
			-0.930553  0.186561 -0.315066
			-0.973174  0.174356 -0.150109
			-0.926557  0.101282  0.362262
			-0.954119  0.148936  0.259759
			-0.983784  0.170326 -0.056188
			-0.968654  0.160829  0.189321
			-0.982689  0.179790  0.044692
			-0.574966 -0.058620 -0.816075
			-0.407140 -0.006463 -0.913343
			-0.230256  0.006931 -0.973105
			-0.354008  0.086246 -0.931257
			-0.275108  0.050949 -0.960062
			-0.121009  0.048929 -0.991445
			 0.062586  0.024228 -0.997745
			-0.014097  0.071116 -0.997368
			-0.113359  0.053933 -0.992089
			 0.234909 -0.005631 -0.972001
			 0.259620  0.002975 -0.965706
			 0.153416  0.005635 -0.988146
			 0.329419 -0.015143 -0.944062
			 0.263143  0.019084 -0.964568
			 0.270926  0.025027 -0.962275
			 0.260675  0.066308 -0.963147
			 0.540840 -0.017779 -0.840938
			 0.492817 -0.033688 -0.869481
			 0.433992  0.054372 -0.899274
			 0.399686  0.020542 -0.916422
			 0.789128 -0.613396  0.031969
			 0.775465 -0.627431  0.070595
			 0.623027 -0.761840  0.177304
			 0.694510 -0.703381  0.151366
			 0.768498 -0.614148 -0.179534
			 0.734044 -0.481168 -0.479225
			 0.693174 -0.368189 -0.619634
			 0.692339 -0.197606 -0.693988
			 0.697484 -0.196066 -0.689256
			 0.707924 -0.116384 -0.696634
			 0.668484 -0.136167 -0.731155
			 0.619055 -0.102495 -0.778631
			 0.564274 -0.048768 -0.824146
			 0.596219 -0.781935  0.181937
			 0.518273 -0.844451  0.135261
			 0.593316 -0.795991  0.119893
			 0.374662 -0.923681  0.080264
			 0.355073 -0.924242  0.140354
			 0.474402 -0.878580  0.055128
			 0.409041 -0.909058  0.079362
			 0.282772 -0.959088  0.013810
			 0.157188 -0.981854 -0.106084
			 0.008866 -0.997277 -0.073214
			-0.155958 -0.974732 -0.159920
			-0.294539 -0.946625 -0.130950
			-0.434974 -0.888168 -0.148170
			-0.536714 -0.830409 -0.149528
			-0.576765 -0.804132 -0.143925
			-0.609647 -0.773888 -0.171542
			-0.709368 -0.669191 -0.221315
			-0.750495 -0.660274 -0.028193
			-0.818702 -0.574197 -0.005002
			-0.876775 -0.478215 -0.050764
			-0.928621 -0.359766 -0.090722
			-0.956943 -0.269268  0.108420
			-0.887706 -0.254742  0.383516
			-0.941945 -0.214442  0.258367
			-0.827868 -0.215837  0.517735
			-0.756174 -0.170889  0.631663
			-0.690307 -0.125528  0.712545
			-0.681079 -0.061258  0.729643
			-0.873250 -0.019468  0.486883
			-0.797108  0.241137  0.553599
			-0.791467  0.412745  0.450801
			-0.735179  0.361329  0.573544
			-0.773425  0.401958  0.490147
			-0.760013  0.495909  0.420065
			-0.903917  0.172253  0.391488
			-0.714246  0.059830  0.697333
			-0.740358  0.280473  0.610905
			-0.701395  0.320823  0.636489
			-0.693439  0.397288  0.601087
			-0.674969  0.411727  0.612289
			-0.602776  0.078034 -0.794086
			-0.730072  0.105334 -0.675203
			-0.765524  0.212796 -0.607200
			-0.885073  0.349362 -0.307559
			-0.800353  0.328481 -0.501534
			-0.897384  0.310876  0.313142
			-0.923405  0.287402  0.254408
			-0.957605  0.249283 -0.144399
			-0.944359  0.293591  0.148292
			-0.951733  0.306443 -0.017209
			-0.906857  0.374239 -0.193793
			-0.479756  0.064195 -0.875050
			-0.484802  0.168212 -0.858296
			-0.444555  0.169802 -0.879510
			-0.410016  0.093441 -0.907279
			-0.235205  0.075708 -0.968993
			 0.103254  0.052678 -0.993259
			 0.002176  0.114601 -0.993409
			-0.044277  0.149021 -0.987842
			-0.002080  0.201622 -0.979461
			-0.142516  0.129351 -0.981304
			-0.238987  0.155195 -0.958540
			 0.223592  0.009099 -0.974640
			 0.310878  0.036191 -0.949761
			 0.306569  0.097502 -0.946841
			 0.287038  0.082383 -0.954370
			 0.291685  0.119028 -0.949080
			 0.299916  0.131614 -0.944843
			 0.516921  0.051729 -0.854469
			 0.540788  0.048839 -0.839740
			 0.522964  0.114286 -0.844658
			 0.458330  0.126534 -0.879729
			 0.369995  0.139819 -0.918452
			 0.836019 -0.519620 -0.176258
			 0.901906 -0.431927  0.002159
			 0.892342 -0.448087  0.054264
			 0.816025 -0.566629  0.114170
			 0.674100 -0.716312  0.180242
			 0.766618 -0.616594  0.179188
			 0.784400 -0.442122 -0.435023
			 0.723045 -0.282459 -0.630414
			 0.713423 -0.150034 -0.684483
			 0.726769 -0.073886 -0.682896
			 0.750978 -0.023892 -0.659894
			 0.754260 -0.047234 -0.654875
			 0.689762 -0.074199 -0.720225
			 0.623954 -0.040491 -0.780411
			 0.580106 -0.814533 -0.003659
			 0.676813 -0.734753  0.045411
			 0.717140 -0.686447  0.120418
			 0.333697 -0.941640 -0.044285
			 0.370228 -0.928881  0.010564
			 0.377018 -0.925995 -0.019783
			 0.455967 -0.887396 -0.067991
			 0.236727 -0.967180 -0.092321
			 0.284605 -0.953776 -0.096500
			 0.131880 -0.966157 -0.221695
			 0.002881 -0.976469 -0.215639
			 0.227712 -0.956611 -0.181780
			-0.161843 -0.940678 -0.298213
			-0.334450 -0.908696 -0.249829
			-0.486943 -0.833596 -0.260777
			-0.557642 -0.791701 -0.249491
			-0.572781 -0.752458 -0.325159
			-0.608132 -0.727189 -0.318389
			-0.604489 -0.697177 -0.385406
			-0.672064 -0.641278 -0.370260
			-0.731933 -0.569901 -0.373480
			-0.826942 -0.509905 -0.236991
			-0.870015 -0.380917 -0.313010
			-0.925153 -0.268962 -0.267865
			-0.948708 -0.225662 -0.221425
			-0.971777 -0.226391 -0.066310
			-0.980991 -0.170181  0.093245
			-0.890643 -0.214545  0.400906
			-0.967298 -0.154946  0.200814
			-0.939140 -0.148106  0.309970
			-0.896115 -0.177984  0.406571
			-0.840266 -0.192099  0.507003
			-0.820362 -0.144343  0.553327
			-0.750851 -0.132531  0.647038
			-0.749277 -0.054037  0.660049
			-0.858785  0.292654  0.420526
			-0.810888  0.486245  0.325617
			-0.718300  0.603979  0.345333
			-0.680290  0.532322  0.503824
			-0.694828  0.582177  0.422237
			-0.639369  0.702655  0.312224
			-0.765730  0.083607  0.637705
			-0.808702  0.210562  0.549239
			-0.679072  0.512909  0.525153
			-0.788915  0.375380  0.486522
			-0.771683  0.446663  0.452767
			-0.715730  0.505062  0.482330
			-0.659734  0.591376  0.463708
			-0.613632  0.217536 -0.759035
			-0.662811  0.347500 -0.663268
			-0.783636  0.514366 -0.348342
			-0.753674  0.459233 -0.470192
			-0.780776  0.569569 -0.256865
			-0.841603  0.484939  0.237779
			-0.843082  0.502403  0.191841
			-0.872788  0.483141  0.069392
			-0.873441  0.475897 -0.103069
			-0.536219  0.283533 -0.795033
			-0.533283  0.354209 -0.768209
			-0.501999  0.273729 -0.820408
			-0.392279  0.159044 -0.905992
			-0.332813  0.234926 -0.913261
			 0.222515  0.060801 -0.973032
			 0.044721  0.164279 -0.985399
			 0.117869  0.136396 -0.983617
			-0.059036  0.216011 -0.974605
			-0.075693  0.286282 -0.955151
			-0.174394  0.252001 -0.951883
			-0.008585  0.291101 -0.956654
			-0.084621  0.337619 -0.937471
			-0.016403  0.385226 -0.922677
			-0.290294  0.254353 -0.922515
			-0.416394  0.338182 -0.843948
			 0.298617  0.034150 -0.953762
			 0.315950  0.132840 -0.939430
			 0.365374  0.104990 -0.924921
			 0.372419  0.083360 -0.924313
			 0.290696  0.160701 -0.943224
			 0.310215  0.162385 -0.936695
			 0.358472  0.172068 -0.917546
			 0.610479  0.030989 -0.791426
			 0.601259  0.108606 -0.791639
			 0.550744  0.140654 -0.822738
			 0.434426  0.173903 -0.883760
			 0.460969  0.164594 -0.872019
			 0.897919 -0.382346 -0.218068
			 0.832171 -0.309836 -0.459883
			 0.942461 -0.259892 -0.210294
			 0.953456 -0.298388 -0.043434
			 0.871576 -0.472291  0.131512
			 0.930753 -0.357965  0.074559
			 0.790640 -0.590003  0.163662
			 0.777402 -0.175124 -0.604133
			 0.769035 -0.069208 -0.635449
			 0.791358 -0.000250 -0.611352
			 0.773155 -0.000643 -0.634217
			 0.789012  0.056705 -0.611756
			 0.787821  0.058233 -0.613146
			 0.712513 -0.003601 -0.701650
			 0.764898  0.027151 -0.643579
			 0.680713  0.032420 -0.731833
			 0.580073 -0.802457 -0.139921
			 0.691018 -0.721363 -0.046152
			 0.766274 -0.641821  0.029830
			 0.816794 -0.567163  0.105708
			 0.339520 -0.937396 -0.077558
			 0.303550 -0.940743 -0.151193
			 0.357541 -0.925274 -0.126621
			 0.433290 -0.882540 -0.182710
			 0.067599 -0.951856 -0.299001
			 0.188412 -0.940495 -0.282790
			-0.042666 -0.955663 -0.291354
			 0.272315 -0.931248 -0.242117
			-0.065636 -0.935774 -0.346439
			-0.251355 -0.881026 -0.400766
			-0.302884 -0.891817 -0.336041
			-0.413789 -0.835106 -0.362460
			-0.517612 -0.779009 -0.353870
			-0.530844 -0.736178 -0.419818
			-0.565455 -0.715693 -0.409932
			-0.552417 -0.683654 -0.476919