<?xml version="1.0"?>
<VTKFile type="PolyData" version="0.1" byte_order="LittleEndian" compressor="vtkZLibDataCompressor">
	<PolyData>
		<Piece NumberOfPoints="675" NumberOfVerts="0" NumberOfLines="0" NumberOfStrips="0" NumberOfPolys="1346">
		<PointData Normals="Normals">
		<DataArray type="Float32" Name="Normals" NumberOfComponents="3" format="ascii">
			 0.009910 -0.997701 -0.067042
			-0.124648 -0.950827 -0.283533
			 0.342705 -0.901174 -0.265402
			 0.452429 -0.884397 -0.114678
			 0.146362 -0.985257  0.088586
			-0.373266 -0.926250  0.052280
			-0.507471 -0.843031 -0.178248
			-0.186272 -0.866059 -0.463945
			 0.669435 -0.685310 -0.286718
			 0.341271 -0.877520 -0.336886
			 0.546479 -0.828025  0.125438
			 0.617337 -0.777366 -0.120819
			 0.265455 -0.926324  0.267314
			-0.204260 -0.918957  0.337338
			-0.329672 -0.922327  0.201568
			-0.598144 -0.735184  0.318949
			-0.625979 -0.775915  0.078139
			-0.491404 -0.755759 -0.432839
			-0.763391 -0.645776  0.014436
			-0.728663 -0.672987 -0.127039
			 0.046088 -0.792887 -0.607623
			-0.264336 -0.721630 -0.639825
			 0.473339 -0.717664 -0.510793
			 0.699815 -0.714028 -0.020567
			 0.240251 -0.733119 -0.636251
			 0.483604 -0.735880 -0.473928
			 0.764334 -0.614638 -0.194972
			 0.681666 -0.618529 -0.390837
			 0.805563 -0.542174 -0.238991
			 0.861633 -0.474033 -0.181332
			 0.588375 -0.730574  0.346521
			 0.634039 -0.714910  0.294784
			 0.450338 -0.731754  0.511598
			 0.064068 -0.858938  0.508056
			-0.311127 -0.822578  0.475989
			-0.362069 -0.724763  0.586195
			-0.589524 -0.646920  0.483690
			-0.758468 -0.586102  0.284976
			-0.788220 -0.598510  0.143163
			-0.730886 -0.632070 -0.257475
			-0.578884 -0.631250 -0.516156
			-0.892744 -0.450552  0.003187
			-0.907176 -0.418745 -0.041052
			-0.120395 -0.728044 -0.674876
			-0.376973 -0.666499 -0.643173
			 0.738176 -0.671639  0.063219
			 0.186966 -0.730913 -0.656361
			 0.419125 -0.679881 -0.601744
			 0.842396 -0.531377 -0.089479
			 0.617352 -0.586450 -0.524359
			 0.794500 -0.487801 -0.361691
			 0.893826 -0.395146 -0.211979
			 0.906420 -0.422342  0.005472
			 0.946602 -0.322241 -0.010240
			 0.933394 -0.326567 -0.148762
			 0.482966 -0.636601  0.601235
			 0.592997 -0.647737  0.478320
			 0.710275 -0.640654  0.291669
			 0.028502 -0.707970  0.705668
			-0.193320 -0.664138  0.722183
			 0.080271 -0.698531  0.711064
			-0.485592 -0.609074  0.627080
			-0.757045 -0.498586  0.422250
			-0.664130 -0.498649  0.557028
			-0.889794 -0.386199  0.243141
			-0.913989 -0.386199  0.124395
			-0.818871 -0.503715 -0.275175
			-0.587552 -0.568542 -0.575797
			-0.884160 -0.406294 -0.230622
			-0.746117 -0.510356 -0.427606
			-0.960851 -0.276783  0.012518
			-0.955032 -0.281890 -0.091934
			 0.072242 -0.695421 -0.714962
			-0.114943 -0.665870 -0.737161
			-0.280572 -0.680328 -0.677077
			 0.827184 -0.551479  0.107879
			 0.358355 -0.672739 -0.647305
			 0.689902 -0.484581 -0.537789
			 0.486630 -0.604517 -0.630675
			 0.899405 -0.342552 -0.271531
			 0.819496 -0.392641 -0.417442
			 0.955321 -0.221396 -0.195823
			 0.810249 -0.528970  0.252363
			 0.894720 -0.418270  0.156606
			 0.941124 -0.323920  0.096755
			 0.921212 -0.301623  0.245750
			 0.953164 -0.237586  0.187169
			 0.968365 -0.249536 -0.000550
			 0.977595 -0.167738  0.127166
			 0.980971 -0.180611 -0.071244
			 0.154309 -0.653815  0.740753
			 0.475720 -0.600566  0.642659
			 0.606933 -0.543128  0.580211
			 0.691287 -0.567205  0.447662
			-0.348974 -0.604689  0.715939
			-0.870377 -0.350012  0.346317
			-0.666824 -0.455749  0.589608
			-0.796091 -0.345911  0.496572
			-0.825331 -0.371311  0.425391
			-0.955478 -0.245193  0.164141
			-0.853302 -0.382417 -0.354448
			-0.582470 -0.625522 -0.519086
			-0.821351 -0.446527 -0.354958
			-0.973736 -0.216898  0.069232
			-0.909074 -0.355282 -0.217624
			-0.973596 -0.228274 -0.001172
			-0.960495 -0.258922 -0.102028
			 0.228402 -0.684586 -0.692224
			-0.001242 -0.744695 -0.667404
			-0.315927 -0.743541 -0.589353
			 0.577039 -0.548692 -0.604949
			 0.774799 -0.360775 -0.519161
			 0.695117 -0.388647 -0.604785
			 0.314667 -0.684238 -0.657878
			 0.891879 -0.271831 -0.361470
			 0.990808 -0.094614 -0.096682
			 0.960162 -0.166309 -0.224568
			 0.989646 -0.083740 -0.116571
			 0.841236 -0.417257  0.343830
			 0.737058 -0.487639  0.467925
			 0.826321 -0.367410  0.426854
			 0.880401 -0.284181  0.379651
			 0.899972 -0.237930  0.365294
			 0.941709 -0.208870  0.263737
			 0.958606 -0.145834  0.244556
			 0.995150 -0.092383  0.033803
			 0.959630 -0.114573  0.256871
			 0.988180 -0.078299  0.131795
			 0.103084 -0.676602  0.729098
			 0.705922 -0.448325  0.548342
			 0.273308 -0.633348  0.723998
			 0.571479 -0.538334  0.619362
			 0.725810 -0.433910  0.533780
			-0.141521 -0.641418  0.754025
			-0.494108 -0.549764  0.673511
			-0.917781 -0.238410  0.317550
			-0.744979 -0.397267  0.535897
			-0.848559 -0.292459  0.440925
			-0.958532 -0.202650  0.200371
			-0.576878 -0.641196 -0.506042
			-0.788989 -0.474649 -0.390134
			-0.962583 -0.196346  0.186769
			-0.975536 -0.197134  0.097297
			-0.912904 -0.324275 -0.247896
			-0.961511 -0.237614 -0.137974
			-0.960787 -0.230094 -0.154741
			-0.965426 -0.208495  0.156471
			-0.964818 -0.241383 -0.104215
			-0.963121 -0.249723  0.100182
			-0.969146 -0.244347 -0.032417
			 0.171415 -0.747851 -0.641354
			-0.097392 -0.778631 -0.619878
			-0.379904 -0.724693 -0.574886
			 0.431834 -0.638118 -0.637437
			 0.605205 -0.484292 -0.631814
			 0.776513 -0.299059 -0.554609
			 0.620358 -0.371357 -0.690833
			 0.673567 -0.286042 -0.681533
			 0.881475 -0.229798 -0.412548
			 0.999798 -0.007301  0.018750
			 0.947980 -0.111085 -0.298318
			 0.980402 -0.039700 -0.192967
			 0.995559 -0.003553 -0.094071
			 0.812550 -0.323245  0.485052
			 0.833419 -0.306631  0.459771
			 0.875762 -0.226817  0.426140
			 0.915670 -0.173977  0.362328
			 0.984932 -0.047976  0.166157
			 0.949730 -0.103391  0.295506
			 0.908287 -0.146513  0.391852
			 0.719959 -0.416720  0.554980
			 0.812557 -0.331729  0.479277
			-0.043356 -0.638834  0.768122
			 0.383086 -0.578209  0.720361
			 0.631461 -0.453762  0.628775
			-0.437758 -0.581185  0.685997
			-0.715703 -0.430452  0.549982
			-0.928176 -0.213026  0.305138
			-0.859330 -0.290042  0.421221
			-0.684238 -0.537521 -0.492838
			-0.839743 -0.366061 -0.401036
			-0.945833 -0.205734  0.251144
			-0.919068 -0.274427 -0.282851
			-0.939752 -0.215502 -0.265377
			-0.925909 -0.199362 -0.320854
			-0.948577 -0.226627 -0.221003
			-0.947429 -0.218504  0.233741
			-0.950544 -0.237633  0.199993
			-0.955791 -0.236063 -0.175322
			-0.950293 -0.259370  0.172250
			-0.960266 -0.262531  0.094693
			-0.968602 -0.248608  0.002192
			-0.963733 -0.237434 -0.121835
			 0.297011 -0.665046 -0.685199
			 0.097748 -0.715460 -0.691782
			-0.106121 -0.732384 -0.672571
			-0.192619 -0.650401 -0.734763
			-0.489980 -0.627251 -0.605373
			 0.483330 -0.523503 -0.701667
			 0.775351 -0.230401 -0.588002
			 0.460934 -0.426481 -0.778238
			 0.515142 -0.317469 -0.796142
			 0.540206 -0.263713 -0.799145
			 0.729431 -0.183389 -0.659014
			 0.562346 -0.223404 -0.796152
			 0.880668 -0.137125 -0.453454
			 0.992056  0.032823  0.121440
			 0.999346  0.017138 -0.031856
			 0.985304  0.106284  0.133715
			 0.936229 -0.022870 -0.350646
			 0.978901  0.036309 -0.201083
			 0.801323 -0.312219  0.510295
			 0.857449 -0.225378  0.462586
			 0.968451 -0.014578  0.248777
			 0.922575 -0.093754  0.374253
			 0.880221 -0.159459  0.446971
			 0.878087 -0.098551  0.468242
			 0.882602 -0.061623  0.466065
			 0.336421 -0.577435  0.743902
			-0.065407 -0.628764  0.774841
			 0.593160 -0.468106  0.655010
			 0.761543 -0.336016  0.554207
			-0.663271 -0.462368  0.588462
			-0.361637 -0.598656  0.714723
			-0.830570 -0.329621  0.448891
			-0.908780 -0.242654  0.339466
			-0.500914 -0.490138 -0.713337
			-0.712623 -0.410577 -0.568855
			-0.811507 -0.254550 -0.525985
			-0.877714 -0.242844 -0.413093
			-0.926762 -0.232996  0.294660
			-0.891862 -0.184694 -0.412881
			-0.834888 -0.167684 -0.524255
			-0.912169 -0.219965 -0.345780
			-0.934825 -0.234647  0.266538
			-0.940526 -0.252786  0.226959
			-0.941376 -0.230548 -0.246291
			-0.946065 -0.262334  0.190110
			-0.977604 -0.210450  0.000786
			-0.960402 -0.236678  0.147010
			-0.973477 -0.218897  0.066529
			-0.970070 -0.224392 -0.092800
			-0.944679 -0.205177 -0.255898
			 0.278749 -0.568590 -0.773954
			 0.091940 -0.606119 -0.790043
			 0.076512 -0.482690 -0.872443
			-0.210567 -0.511790 -0.832906
			 0.834380 -0.106788 -0.540747
			 0.288922 -0.433817 -0.853420
			 0.363366 -0.310969 -0.878216
			 0.383480 -0.221991 -0.896473
			 0.595114 -0.169438 -0.785576
			 0.771543 -0.084083 -0.630596
			 0.858894 -0.043203 -0.510329
			 0.648124 -0.086634 -0.756591
			 0.479490 -0.132820 -0.867438
			 0.970249  0.123895  0.208006
			 0.988324  0.058971  0.140493
			 0.980218  0.105395 -0.167523
			 0.989905  0.125360 -0.066134
			 0.947898  0.255070  0.190862
			 0.922332  0.334678  0.193116
			 0.923747  0.306588  0.229555
			 0.934308  0.016994 -0.356060
			 0.941620  0.082313 -0.326461
			 0.955960  0.125665 -0.265233
			 0.781013 -0.289751  0.553230
			 0.830278 -0.178475  0.528001
			 0.918017 -0.025843  0.395698
			 0.942259  0.061054  0.329273
			 0.834763 -0.111416  0.539219
			 0.847764 -0.022963  0.529876
			 0.848924  0.033526  0.527450
			 0.880011  0.051056  0.472202
			 0.198275 -0.616948  0.761618
			 0.450317 -0.512089  0.731422
			 0.663244 -0.374550  0.647935
			-0.713600 -0.451703  0.535481
			-0.079947 -0.629428  0.772935
			-0.353256 -0.592957  0.723610
			-0.874267 -0.298161  0.383088
			-0.176402 -0.371770 -0.911411
			-0.481196 -0.346780 -0.805105
			-0.676997 -0.286109 -0.678098
			-0.622708 -0.195670 -0.757593
			-0.806555 -0.184378 -0.561671
			-0.893552 -0.282364  0.349049
			-0.921125 -0.230576  0.313631
			-0.730131 -0.153198 -0.665913
			-0.697445 -0.128310 -0.705058
			-0.837920 -0.201120 -0.507386
			-0.747407 -0.142556 -0.648891
			-0.904831 -0.215203 -0.367381
			-0.915204 -0.208938  0.344597
			-0.925272 -0.236700  0.296385
			-0.933259 -0.237480  0.269500
			-0.937831 -0.244800  0.246063
			-0.952732 -0.232885  0.195106
			-0.982125 -0.159802  0.099466
			-0.987919 -0.153371  0.022214
			-0.972406 -0.187893 -0.138285
			-0.896248 -0.155483 -0.415410
			-0.870571 -0.087607 -0.484181
			-0.937022 -0.150638 -0.315117
			 0.168740 -0.330423 -0.928627
			 0.202155 -0.238624 -0.949838
			 0.095628 -0.193342 -0.976460
			 0.322748 -0.171972 -0.930731
			 0.773608  0.012684 -0.633538
			 0.879230  0.055576 -0.473146
			 0.620069 -0.039482 -0.783553
			 0.387852 -0.090549 -0.917263
			 0.488285 -0.017138 -0.872516
			 0.919703  0.154946  0.360746
			 0.917968  0.275850  0.285029
			 0.971800  0.205181  0.116211
			 0.940998  0.280411 -0.189453
			 0.949879  0.290136 -0.116405
			 0.932203  0.270615 -0.240344
			 0.930489  0.364244  0.038934
			 0.867027  0.415026  0.275711
			 0.847086  0.488434  0.209469
			 0.840319  0.522032  0.146108
			 0.844694  0.525651  0.100913
			 0.892806  0.130504 -0.431123
			 0.924553  0.245328 -0.291576
			 0.735621 -0.255879  0.627207
			 0.752697 -0.174809  0.634736
			 0.806940 -0.083773  0.584662
			 0.778515  0.028443  0.626982
			 0.804497  0.091348  0.586890
			 0.802183  0.132158  0.582268
			 0.821863  0.147212  0.550337
			 0.854265  0.164357  0.493171
			 0.162735 -0.563299  0.810069
			 0.521582 -0.411751  0.747270
			-0.570190 -0.533818  0.624437
			-0.785793 -0.392449  0.478030
			-0.144239 -0.592729  0.792381
			-0.050990 -0.262611 -0.963554
			-0.346835 -0.263428 -0.900173
			-0.300747 -0.203831 -0.931667
			-0.541516 -0.167179 -0.823900
			-0.792140 -0.388716  0.470546
			-0.879390 -0.256800  0.400908
			-0.889295 -0.212309  0.405066
			-0.549190 -0.120895 -0.826907
			-0.657624 -0.088763 -0.748099
			-0.444717 -0.074441 -0.892572
			-0.847983 -0.171957 -0.501354
			-0.773203 -0.137289 -0.619120
			-0.715411 -0.046521 -0.697154
			-0.879695 -0.188217  0.436704
			-0.861075 -0.142984  0.487961
			-0.861809 -0.146833  0.485516
			-0.924156 -0.213087  0.317065
			-0.897319 -0.186809  0.399902
			-0.931567 -0.209228  0.297332
			-0.943819 -0.201184  0.262166
			-0.966493 -0.178858  0.184123
			-0.977823 -0.104728  0.181370
			-0.993945 -0.013766  0.109017
			-0.999759 -0.011014  0.018967
			-0.994507 -0.031524 -0.099805
			-0.941634 -0.058244 -0.331561
			-0.888248 -0.022516 -0.458813
			-0.977854  0.046316 -0.204098
			-0.806862 -0.083198 -0.584851
			-0.760718  0.029877 -0.648395
			-0.778963  0.128866 -0.613686
			-0.230072 -0.181821 -0.956038
			 0.215558 -0.111984 -0.970049
			-0.007091 -0.133909 -0.990968
			 0.731470  0.081233 -0.677018
			 0.818943  0.108577 -0.563511
			 0.607125  0.034597 -0.793853
			 0.324043 -0.015016 -0.945923
			 0.635219  0.099126 -0.765944
			 0.450058  0.055533 -0.891271
			 0.866615  0.260753  0.425425
			 0.830253  0.415032  0.372059
			 0.860082  0.477719 -0.179006
			 0.873895  0.483051 -0.054496
			 0.855359  0.446743 -0.262263
			 0.801634  0.515966  0.301930
			 0.772293  0.486327  0.408716
			 0.776142  0.612687  0.149057
			 0.758569  0.650918  0.029651
			 0.759427  0.648383  0.053575
			 0.791562  0.608655 -0.054481
			 0.784223  0.189124 -0.590953
			 0.888647  0.242841 -0.389018
			 0.820272  0.264344 -0.507225
			 0.833738  0.417955 -0.360824
			 0.613028 -0.329707  0.717976
			 0.541666 -0.234655  0.807177
			 0.624534 -0.245943  0.741262
			 0.688529 -0.138561  0.711849
			 0.742532 -0.039244  0.668660
			 0.641585  0.002436  0.767048
			 0.650597  0.079374  0.755264
			 0.750499  0.093670  0.654199
			 0.735983  0.172959  0.654533
			 0.757573  0.222703  0.613585
			 0.784911  0.258067  0.563308
			 0.309911 -0.489705  0.814951
			-0.489163 -0.514549  0.704243
			-0.491655 -0.494752  0.716586
			-0.039295 -0.515955  0.855714
			-0.280609 -0.124020 -0.951776
			-0.738918 -0.367346  0.564851
			-0.375250 -0.520556  0.766948
			-0.578894 -0.254342  0.774721
			-0.792207 -0.226521  0.566653
			-0.757650 -0.116709  0.642141
			-0.750381 -0.181822  0.635507
			-0.424113 -0.032570 -0.905023
			-0.454519  0.036035 -0.890008
			-0.566583  0.051161 -0.822415
			-0.586480  0.068566 -0.807056
			-0.167581 -0.048267 -0.984676
			-0.008881  0.021987 -0.999719
			-0.150717  0.020601 -0.988362
			-0.637231  0.108201 -0.763040
			-0.669564  0.134996 -0.730383
			-0.785949 -0.150935  0.599585
			-0.664511 -0.098491  0.740759
			-0.756648 -0.060988  0.650972
			-0.677060  0.006181  0.735902
			-0.791444 -0.082494  0.605649
			-0.922822 -0.146527  0.356272
			-0.887727 -0.127607  0.442332
			-0.932953 -0.125504  0.337412
			-0.955927 -0.114866  0.270204
			-0.967741  0.041595  0.248489
			-0.983191  0.055460  0.173954
			-0.910303  0.363092  0.198780
			-0.954181  0.263637  0.141540
			-0.967865  0.249034  0.034924
			-0.972724  0.230521 -0.025857
			-0.965638  0.219666 -0.138892
			-0.863573  0.385077 -0.325511
			-0.842513  0.279636 -0.460408
			-0.739758  0.355273 -0.571436
			-0.657105  0.298023 -0.692384
			-0.584175  0.495177 -0.643071
			 0.102729 -0.046008 -0.993645
			 0.268150  0.071147 -0.960746
			 0.713441  0.208835 -0.668872
			 0.570886  0.148133 -0.807555
			 0.435905  0.191693 -0.879341
			 0.801472  0.347232  0.486902
			 0.751193  0.415474  0.512923
			 0.756466  0.636401 -0.150842
			 0.770044  0.595352 -0.229322
			 0.763946  0.570229 -0.302036
			 0.769776  0.574475  0.278250
			 0.737533  0.527419  0.421752
			 0.726395  0.438739  0.529016
			 0.715456  0.697265  0.044108
			 0.719341  0.674437  0.166382
			 0.689706  0.721875  0.056589
			 0.704864  0.705027 -0.078130
			 0.683284  0.728391 -0.050686
			 0.795037  0.395562 -0.459834
			 0.776164  0.351476 -0.523483
			 0.393687 -0.382730  0.835780
			 0.268266 -0.346263  0.898964
			 0.095225 -0.447093  0.889405
			 0.552494 -0.118590  0.825037
			 0.473984  0.036635  0.879771
			 0.637881  0.169691  0.751207
			 0.524875  0.120605  0.842592
			 0.674703  0.229376  0.701543
			 0.730378  0.301408  0.612945
			 0.741208  0.328617  0.585339
			-0.316194 -0.404637  0.858074
			-0.028863 -0.201642  0.979034
			 0.033554 -0.050349  0.998168
			-0.478587 -0.128502  0.868586
			-0.274588 -0.013700  0.961465
			-0.296081 -0.067520  0.952774
			-0.536190 -0.141240  0.832197
			-0.166759  0.140572 -0.975926
			-0.305200  0.219263 -0.926702
			-0.467489  0.246945 -0.848806
			-0.305400  0.286565 -0.908081
			 0.112212  0.150089 -0.982284
			-0.454276  0.355787 -0.816730
			-0.521471  0.397206 -0.755179
			-0.352277 -0.060728  0.933923
			-0.241268  0.045040  0.969413
			-0.480025 -0.020130  0.877023
			-0.480807  0.071422  0.873913
			-0.397276  0.162157  0.903259
			-0.199184  0.250239  0.947474
			-0.502136  0.139583  0.853450
			-0.779578 -0.020581  0.625967
			-0.440064  0.187947  0.878077
			-0.867837  0.037457  0.495435
			-0.895125  0.041648  0.443866
			-0.864357  0.156399  0.477939
			-0.946803  0.020737  0.321146
			-0.884579  0.384827  0.263492
			-0.873466  0.442123  0.203921
			-0.553783  0.820151  0.143794
			-0.448550  0.883571  0.134552
			-0.710826  0.683945  0.164152
			-0.751800  0.658779  0.028402
			-0.784334  0.608828 -0.118947
			-0.765746  0.597608 -0.237692
			-0.540231  0.703964 -0.461069
			-0.479643  0.763900 -0.431739
			-0.483357  0.692802 -0.535156
			-0.434044  0.649514 -0.624289
			-0.444875  0.605897 -0.659527
			-0.274632  0.821777 -0.499259
			 0.376756  0.234140 -0.896233
			 0.693197  0.387637 -0.607632
			 0.578709  0.312525 -0.753275
			 0.494859  0.403220 -0.769759
			 0.694400  0.697041 -0.178723
			 0.761345  0.518372 -0.389414
			 0.705376  0.644591 -0.294869
			 0.705583  0.635332  0.313856
			 0.700085  0.519033  0.490394
			 0.681100  0.623135  0.384455
			 0.713541  0.361297  0.600270
			 0.688707  0.410533  0.597617
			 0.675676  0.707322  0.207744
			 0.666882  0.741302  0.075753
			 0.661925  0.748006 -0.048393
			 0.649899  0.748681 -0.130799
			 0.709434  0.539772 -0.453156
			 0.370019 -0.091223  0.924535
			 0.217852  0.043294  0.975021
			 0.302369  0.041222  0.952299
			 0.579289  0.162250  0.798811
			 0.677847  0.278654  0.680350
			-0.027270 -0.054487  0.998142
			-0.003373  0.315002 -0.949085
			-0.006083  0.418084 -0.908388
			-0.232315  0.493581 -0.838098
			-0.071274  0.493353 -0.866904
			 0.298355  0.298210 -0.906672
			 0.170085  0.375957 -0.910894
			-0.266448  0.577257 -0.771868
			-0.115916  0.620938 -0.775242
			-0.285564  0.689422 -0.665696
			 0.045083  0.053277  0.997562
			 0.232143  0.177235  0.956398
			-0.048724  0.177003  0.983004
			 0.134698  0.299019  0.944693
			 0.305169  0.410165  0.859440
			-0.017723  0.383943  0.923187
			-0.669195  0.193500  0.717450
			 0.146803  0.492425  0.857885
			-0.259182  0.414596  0.872316
			-0.530903  0.438945  0.724892
			-0.777482  0.274990  0.565598
			-0.656458  0.541666  0.525034
			-0.739785  0.420404  0.525336
			-0.590673  0.645298  0.484454
			-0.574477  0.667155  0.474216
			-0.831479  0.293467  0.471720
			-0.814797  0.467320  0.343100
			-0.528300  0.797142  0.292342
			-0.593390  0.782830  0.187258
			-0.135567  0.986950  0.086902
			-0.158425  0.984744  0.071976
			-0.072366  0.997328 -0.009972
			-0.296914  0.954700  0.019770
			-0.392138  0.914093 -0.103257
			-0.334550  0.917212 -0.216330
			-0.359421  0.873325 -0.328817
			-0.100586  0.948320 -0.300950
			-0.263646  0.881406 -0.391937
			-0.143261  0.839990 -0.523347
			-0.108189  0.904781 -0.411906
			-0.080799  0.947709 -0.308737
			 0.420287  0.471254 -0.775421
			 0.604570  0.511719 -0.610441
			 0.539613  0.592805 -0.597828
			 0.671023  0.712415 -0.205409
			 0.655349  0.630525 -0.415879
			 0.633939  0.727222 -0.263189
			 0.643774  0.523764  0.557876
			 0.652863  0.613632  0.444101
			 0.639217  0.703710  0.310151
			 0.611364  0.314599  0.726128
			 0.506722  0.342694  0.791071
			 0.569218  0.403415  0.716412
			 0.569308  0.490003  0.660140
			 0.637651  0.749199  0.179170
			 0.634310  0.772623  0.026545
			 0.541134  0.831331  0.126738
			 0.569660  0.813743 -0.115372
			 0.553762  0.826620 -0.100233
			 0.598808  0.785219 -0.157668
			 0.375352  0.098567  0.921626
			 0.539776  0.216391  0.813521
			 0.200196  0.511212 -0.835813
			 0.090513  0.644941 -0.758854
			-0.061670  0.785856 -0.615327
			 0.058504  0.769720 -0.635695
			 0.372476  0.271319  0.887495
			 0.409178  0.503895  0.760699
			 0.482390  0.559745  0.673784
			 0.401981  0.642822  0.652067
			 0.037333  0.619586  0.784041
			-0.068467  0.740890  0.668127
			-0.446771  0.668826  0.594194
			-0.224591  0.891058  0.394428
			-0.332544  0.830138  0.447533
			-0.158567  0.909145  0.385112
			-0.308393  0.893862  0.325430
			-0.086433  0.982564  0.164611
			-0.296590  0.938376  0.177437
			 0.085069  0.992270  0.090348
			 0.064804  0.997558  0.026041
			 0.034529  0.998425 -0.044230
			-0.003043  0.990490 -0.137551
			-0.059205  0.989177 -0.134253
			 0.005116  0.982281 -0.187345
			 0.070637  0.879488 -0.470651
			 0.006836  0.930987 -0.364988
			 0.036184  0.973607 -0.225343
			 0.443205  0.618494 -0.648872
			 0.594213  0.687675 -0.417149
			 0.518112  0.728174 -0.448691
			 0.561832  0.768447 -0.306322
			 0.582561  0.620420  0.525072
			 0.582716  0.711862  0.392040
			 0.496468  0.730763  0.468514
			 0.537598  0.822248  0.186806
			 0.508084  0.832734  0.220013
			 0.472632  0.825165  0.309389
			 0.518301  0.854672 -0.029981
			 0.460004  0.885565  0.064584
			 0.352583  0.927163  0.126702
			 0.321526  0.935790  0.144631
			 0.386756  0.916606 -0.101259
			 0.423780  0.899035 -0.110210
			 0.355488  0.932474 -0.064184
			 0.502092  0.846360 -0.177702
			 0.263830  0.641092 -0.720691
			 0.336738  0.742426 -0.579146
			 0.190786  0.794238 -0.576876
			 0.298706  0.742223  0.599900
			 0.250415  0.851766  0.460203
			-0.056463  0.881755  0.468316
			 0.110674  0.947817  0.298988
			 0.044410  0.964534  0.260196
			 0.103828  0.974876  0.197072
			-0.036918  0.964366  0.261982
			 0.165746  0.975540  0.144399
			 0.139348  0.989083  0.047932
			 0.141448  0.989566 -0.027410
			 0.084158  0.993427 -0.077587
			 0.090761  0.990107 -0.107011
			 0.346378  0.816168 -0.462484
			 0.184609  0.904753 -0.383851
			 0.083447  0.950285 -0.299993
			 0.213310  0.963398 -0.162370
			 0.135829  0.981430 -0.135448
			 0.400231  0.857875 -0.322282
			 0.421404  0.837421  0.348059
			 0.318991  0.880010  0.351889
			 0.345676  0.912203  0.219988
			 0.230095  0.946944  0.224395
			 0.270290  0.962278  0.031070
			 0.190047  0.977672  0.089661
			 0.209279  0.977495 -0.026551
			 0.246100  0.966222 -0.076484
			 0.283220  0.936700 -0.205864
		</DataArray>
	</PointData>
	<Points>
		<DataArray type="Float32" NumberOfComponents="3" format="ascii">
			-0.000611 -0.002665 -0.001943
			-0.000793 -0.002586 -0.002641
			 0.000009 -0.002360 -0.002816
			 0.000470 -0.002310 -0.001877
			-0.000358 -0.002619 -0.000777
			-0.001278 -0.002544 -0.001133
			-0.001669 -0.002239 -0.002308
			-0.000855 -0.002178 -0.003387
			 0.001565 -0.000955 -0.003301
			 0.000204 -0.002054 -0.003551
			 0.000856 -0.002060 -0.000568
			 0.001233 -0.001860 -0.001769
			-0.000005 -0.002312  0.000453
			-0.000813 -0.002466  0.000046
			-0.001095 -0.002554 -0.000461
			-0.001828 -0.001826 -0.000022
			-0.001919 -0.002183 -0.001276
			-0.002130 -0.001478 -0.003531
			-0.002692 -0.001375 -0.001643
			-0.002716 -0.001298 -0.002803
			-0.000237 -0.001863 -0.004073
			-0.001234 -0.001146 -0.004552
			 0.000465 -0.001726 -0.003953
			 0.001890 -0.001250 -0.001282
			 0.000249 -0.001108 -0.004695
			 0.001250 -0.000386 -0.005072
			 0.002816 -0.000159 -0.001822
			 0.002339  0.000778 -0.005311
			 0.003326  0.001613 -0.004432
			 0.003951  0.001986 -0.002633
			 0.000796 -0.001705  0.000794
			 0.001803 -0.000981  0.000388
			 0.000297 -0.001814  0.001317
			-0.000137 -0.002126  0.001162
			-0.000687 -0.002092  0.000914
			-0.001108 -0.001189  0.001826
			-0.002254 -0.000607  0.001512
			-0.002967 -0.000562  0.000411
			-0.003018 -0.000893 -0.000629
			-0.003049 -0.000731 -0.003535
			-0.002851 -0.000177 -0.004535
			-0.003541 -0.000135 -0.001508
			-0.003621  0.000244 -0.003003
			-0.000636 -0.000088 -0.005869
			-0.001899  0.000103 -0.005576
			 0.002793 -0.000331 -0.000596
			 0.000500 -0.000202 -0.005750
			 0.001389  0.000554 -0.006139
			 0.003545  0.000676 -0.001184
			 0.002389  0.001905 -0.006716
			 0.003668  0.003123 -0.006072
			 0.004618  0.004109 -0.004670
			 0.004288  0.002087 -0.000532
			 0.005235  0.004543 -0.001458
			 0.005409  0.005389 -0.003266
			 0.000949 -0.000496  0.002141
			 0.002240  0.000008  0.001463
			 0.002874  0.000076  0.000539
			-0.000152 -0.001580  0.001719
			-0.000852 -0.000207  0.003026
			-0.000233 -0.000760  0.002536
			-0.001643 -0.000109  0.002677
			-0.003057  0.000135  0.001348
			-0.002652  0.000899  0.002594
			-0.003560  0.000531  0.000593
			-0.003672  0.000353 -0.000470
			-0.003434 -0.000088 -0.003841
			-0.003028  0.001312 -0.005923
			-0.003781  0.000983 -0.004352
			-0.003502  0.000869 -0.005001
			-0.004241  0.001945 -0.001861
			-0.004697  0.004080 -0.004563
			 0.000159  0.000845 -0.006814
			-0.000655  0.000568 -0.006562
			-0.001432  0.001257 -0.006941
			 0.003498  0.000601 -0.000229
			 0.001400  0.001411 -0.007055
			 0.003150  0.004002 -0.007843
			 0.001902  0.002558 -0.007839
			 0.004809  0.005487 -0.006167
			 0.004267  0.005162 -0.007221
			 0.005765  0.008015 -0.005124
			 0.003677  0.001196  0.000640
			 0.004212  0.002013  0.000469
			 0.004947  0.003625 -0.000341
			 0.004564  0.003237  0.000770
			 0.005288  0.005226  0.000128
			 0.005861  0.006414 -0.002213
			 0.006030  0.008112 -0.000729
			 0.006173  0.008138 -0.002940
			-0.000020  0.000458  0.003576
			 0.001212  0.001901  0.004261
			 0.002462  0.001322  0.002589
			 0.002978  0.000742  0.001422
			-0.001232  0.001337  0.004124
			-0.003527  0.001272  0.001496
			-0.002495  0.002532  0.004088
			-0.003222  0.002242  0.002939
			-0.003389  0.001696  0.002269
			-0.004185  0.002384  0.000093
			-0.003910  0.001948 -0.005259
			-0.002951  0.002836 -0.007660
			-0.003993  0.003240 -0.006506
			-0.005160  0.005888 -0.001718
			-0.004747  0.005187 -0.006968
			-0.006461  0.011367 -0.004685
			-0.005466  0.007359 -0.006563
			 0.000889  0.001900 -0.007746
			-0.000269  0.002314 -0.008322
			-0.001826  0.002946 -0.008707
			 0.002109  0.003986 -0.008982
			 0.004049  0.006170 -0.008368
			 0.002984  0.006115 -0.009632
			 0.001055  0.002932 -0.008705
			 0.005040  0.007718 -0.007527
			 0.006478  0.010780 -0.003551
			 0.005921  0.010867 -0.007106
			 0.006436  0.012404 -0.005077
			 0.004044  0.002050  0.001063
			 0.003465  0.001659  0.001701
			 0.004011  0.002725  0.001767
			 0.004370  0.003702  0.001808
			 0.004709  0.005472  0.002108
			 0.005558  0.007128  0.000911
			 0.005847  0.008681  0.000980
			 0.006528  0.010705 -0.002064
			 0.005959  0.011122  0.001589
			 0.006476  0.011851 -0.000525
			-0.000006  0.001823  0.004831
			 0.002830  0.003643  0.004152
			 0.000504  0.003228  0.005954
			 0.001655  0.004086  0.005907
			 0.003376  0.002536  0.002606
			-0.000514  0.002802  0.005699
			-0.001560  0.003644  0.005854
			-0.003888  0.003068  0.001984
			-0.002662  0.004126  0.005089
			-0.003382  0.003859  0.003671
			-0.004665  0.004985  0.000659
			-0.002915  0.003996 -0.009204
			-0.004012  0.004916 -0.008585
			-0.005365  0.008188  0.000330
			-0.005924  0.009446 -0.001699
			-0.005088  0.007130 -0.008406
			-0.005918  0.009790 -0.007895
			-0.006690  0.013173 -0.008006
			-0.006423  0.012841 -0.000386
			-0.007422  0.015572 -0.006998
			-0.008020  0.018251 -0.002592
			-0.008138  0.018134 -0.005710
			 0.000226  0.003441 -0.009590
			-0.000946  0.003506 -0.009729
			-0.002132  0.004303 -0.010300
			 0.001214  0.004007 -0.009759
			 0.001934  0.005020 -0.010060
			 0.004244  0.008466 -0.009434
			 0.001909  0.006542 -0.011029
			 0.002922  0.009461 -0.011393
			 0.005293  0.010551 -0.008842
			 0.006642  0.014849 -0.002032
			 0.005853  0.012620 -0.008451
			 0.006262  0.014146 -0.007081
			 0.006583  0.015814 -0.005033
			 0.003914  0.003787  0.002697
			 0.003844  0.005176  0.003740
			 0.004125  0.007626  0.004611
			 0.005282  0.008627  0.002507
			 0.006400  0.014470  0.001040
			 0.005872  0.014094  0.003142
			 0.004776  0.012015  0.005120
			 0.002561  0.005265  0.005881
			 0.003324  0.005696  0.005028
			-0.000253  0.004534  0.007147
			 0.000877  0.004762  0.007081
			 0.001812  0.006124  0.007355
			-0.001278  0.005549  0.007662
			-0.002321  0.005453  0.006539
			-0.004344  0.006308  0.002798
			-0.003332  0.005858  0.005097
			-0.003275  0.005546 -0.010591
			-0.004502  0.007514 -0.010391
			-0.005255  0.010527  0.002779
			-0.005409  0.009069 -0.009559
			-0.006003  0.011570 -0.009645
			-0.006647  0.014962 -0.009879
			-0.007359  0.016325 -0.008533
			-0.006128  0.014602  0.002887
			-0.007345  0.017956  0.001028
			-0.008123  0.018889 -0.007807
			-0.008512  0.021249 -0.000473
			-0.009442  0.023594 -0.002348
			-0.009234  0.022346 -0.004779
			-0.009038  0.022038 -0.007002
			 0.000533  0.004253 -0.010406
			-0.000316  0.004205 -0.010579
			-0.001221  0.004387 -0.010788
			-0.001829  0.005325 -0.011599
			-0.002535  0.005248 -0.011202
			 0.001168  0.005057 -0.010728
			 0.004546  0.011328 -0.010395
			 0.000938  0.006179 -0.011603
			 0.001220  0.008240 -0.012334
			 0.001790  0.010151 -0.012676
			 0.003822  0.013481 -0.011921
			 0.002336  0.012193 -0.012878
			 0.005398  0.012614 -0.009582
			 0.006435  0.017464  0.001030
			 0.006604  0.019328 -0.003520
			 0.006324  0.020412 -0.000059
			 0.005716  0.014969 -0.009147
			 0.006194  0.018071 -0.007146
			 0.002989  0.007027  0.006423
			 0.003364  0.009630  0.007150
			 0.006032  0.016994  0.003261
			 0.005457  0.015441  0.004727
			 0.003730  0.011705  0.007385
			 0.003658  0.013511  0.007980
			 0.004504  0.016059  0.006789
			 0.000598  0.006118  0.008265
			-0.000385  0.006143  0.008506