<?xml version="1.0"?>
<VTKFile type="PolyData" version="0.1" byte_order="LittleEndian" compressor="vtkZLibDataCompressor">
	<PolyData>
		<Piece NumberOfPoints="3823" NumberOfVerts="0" NumberOfLines="0" NumberOfStrips="0" NumberOfPolys="7642">
		<PointData Normals="Normals">
		<DataArray type="Float32" Name="Normals" NumberOfComponents="3" format="ascii">
			 0.399702 -0.900636  0.170566
			 0.280015 -0.945941 -0.163670
			 0.465405 -0.881315  0.081742
			 0.268108 -0.815531  0.512861
			 0.083947 -0.990444  0.109426
			 0.011587 -0.997749 -0.066048
			 0.380776 -0.796117  0.470327
			 0.269219 -0.901958 -0.337630
			 0.488801 -0.776120 -0.398385
			-0.075694 -0.918826 -0.387335
			-0.098553 -0.731354 -0.674840
			-0.130242 -0.703855 -0.698301
			 0.466263 -0.860782  0.204091
			 0.474631 -0.875830 -0.087445
			-0.120682 -0.930625  0.345505
			 0.075168 -0.698149  0.711995
			-0.217176 -0.814927  0.537334
			-0.428182 -0.901813  0.058250
			-0.389689 -0.865722 -0.314115
			 0.174419 -0.709758  0.682511
			 0.329689 -0.774702  0.539575
			 0.223171 -0.659361  0.717940
			 0.460639 -0.842026  0.280721
			 0.218940 -0.623987 -0.750137
			 0.258199 -0.723834 -0.639842
			 0.147610 -0.548298 -0.823153
			 0.010064 -0.468353 -0.883484
			-0.328186 -0.646083 -0.689109
			-0.321429 -0.356218 -0.877378
			 0.488934 -0.865831  0.106205
			 0.362705 -0.859689 -0.359694
			 0.452934 -0.864798 -0.216741
			-0.258276 -0.674712  0.691416
			-0.165691 -0.603722  0.779786
			-0.353835 -0.551047  0.755744
			-0.527838 -0.701882  0.478276
			-0.642337 -0.765103  0.044960
			-0.574486 -0.728311 -0.373535
			-0.476226 -0.557534 -0.679974
			 0.010442 -0.612685  0.790259
			 0.444894 -0.815642  0.369862
			 0.345819 -0.745381  0.569926
			 0.149617 -0.701936  0.696348
			 0.002126 -0.534667  0.845060
			-0.013426 -0.545056  0.838292
			 0.241155 -0.752375 -0.613005
			-0.016314 -0.483239 -0.875336
			-0.046665 -0.372778 -0.926746
			-0.167647 -0.341022 -0.924986
			-0.494055 -0.417504 -0.762627
			-0.297769 -0.201111 -0.933214
			-0.419737 -0.160990 -0.893254
			 0.541888 -0.785777  0.298181
			 0.560617 -0.819024  0.122104
			 0.552547 -0.831220 -0.061360
			 0.475691 -0.822190 -0.312605
			 0.300448 -0.789512 -0.535165
			-0.278493 -0.498962  0.820658
			-0.464509 -0.436906  0.770288
			-0.611158 -0.443044  0.655895
			-0.713658 -0.560392  0.420301
			-0.860141 -0.510050  0.002498
			-0.705962 -0.557970 -0.436220
			 0.416946 -0.785703  0.456975
			 0.249901 -0.801404  0.543417
			 0.086009 -0.699297  0.709638
			-0.026056 -0.647973  0.761217
			-0.191322 -0.567937  0.800527
			-0.239563 -0.466902  0.851241
			-0.317994 -0.461389  0.828251
			 0.031150 -0.546792 -0.836689
			-0.133331 -0.272436 -0.952891
			-0.219490 -0.216389 -0.951315
			-0.608844 -0.334312 -0.719405
			-0.359039 -0.076355 -0.930194
			-0.653977 -0.146397 -0.742215
			-0.478926 -0.048263 -0.876528
			-0.706326 -0.055553 -0.705703
			 0.617758 -0.729496  0.293618
			 0.641596 -0.750708  0.157453
			 0.505930 -0.799502 -0.323778
			 0.627626 -0.778300 -0.018316
			 0.364959 -0.671548 -0.644848
			 0.186711 -0.589194 -0.786123
			-0.507511 -0.382257  0.772213
			-0.681303 -0.317661  0.659483
			-0.878563 -0.353445  0.321253
			-0.889609 -0.273801 -0.365552
			 0.490235 -0.788823  0.370713
			 0.482880 -0.737746  0.471760
			 0.357824 -0.672682  0.647658
			 0.193566 -0.657319  0.728330
			 0.112037 -0.585939  0.802573
			-0.146628 -0.591932  0.792538
			-0.065382 -0.583322  0.809605
			-0.373834 -0.418242  0.827842
			-0.386937 -0.534805  0.751175
			-0.550423 -0.372942  0.746960
			-0.572105 -0.345907  0.743670
			 0.044904 -0.371930 -0.927174
			-0.138726 -0.154808 -0.978156
			-0.266698 -0.101099 -0.958463
			-0.363071  0.007811 -0.931729
			-0.481831  0.038335 -0.875425
			-0.635694  0.035033 -0.771146
			-0.955684 -0.193082 -0.222233
			-0.874905  0.026754 -0.483554
			 0.671121 -0.727229  0.143994
			 0.657961 -0.642297  0.393117
			 0.687422 -0.648030  0.327885
			 0.640605 -0.760984 -0.102607
			 0.564496 -0.694094 -0.446742
			 0.391708 -0.688890 -0.609915
			 0.219598 -0.579031 -0.785175
			-0.728519 -0.238258  0.642256
			-0.899374 -0.264893  0.347791
			-0.874797 -0.130698  0.466527
			 0.570182 -0.575105  0.586640
			 0.368374 -0.559466  0.742494
			 0.229109 -0.558423  0.797291
			-0.241303 -0.480294  0.843262
			 0.023369 -0.597176  0.801770
			-0.151364 -0.525531  0.837201
			-0.273847 -0.538932  0.796593
			-0.377232 -0.417094  0.826879
			-0.468696 -0.389325  0.792937
			-0.735015 -0.205757  0.646078
			-0.586244 -0.274438  0.762234
			-0.717841 -0.206463  0.664888
			 0.021444 -0.262892 -0.964587
			-0.110422 -0.080065 -0.990655
			-0.229404 -0.030925 -0.972840
			-0.290863  0.045369 -0.955688
			-0.456300  0.097037 -0.884519
			-0.355927  0.096908 -0.929476
			-0.722317  0.105856 -0.683413
			-0.612608  0.109948 -0.782702
			-0.587377  0.169013 -0.791469
			-0.997554 -0.066710  0.020856
			-0.998313  0.057715  0.006369
			-0.914059  0.144214 -0.379077
			 0.599764 -0.762473 -0.242732
			 0.667279 -0.680925  0.301796
			 0.604978 -0.791745  0.084503
			 0.703321 -0.552168  0.447717
			 0.625317 -0.536305  0.566882
			 0.707242 -0.547416  0.447375
			 0.706338 -0.599298  0.376733
			 0.455694 -0.556156 -0.695006
			 0.290865 -0.459061 -0.839441
			-0.940386 -0.060963  0.334600
			-0.863220 -0.097611  0.495301
			 0.399235 -0.495920  0.771151
			 0.554815 -0.506591  0.659960
			 0.443350 -0.501890  0.742662
			 0.512837 -0.455595  0.727621
			 0.235475 -0.558061  0.795688
			 0.000086 -0.541943  0.840415
			-0.202636 -0.469979  0.859103
			-0.354193 -0.390591  0.849698
			-0.528693 -0.273320  0.803604
			-0.859548 -0.076072  0.505362
			-0.907941 -0.013180  0.418890
			-0.666288 -0.153604  0.729703
			-0.753350 -0.092370  0.651100
			-0.852891 -0.025697  0.521457
			 0.131737 -0.275400 -0.952260
			-0.012269 -0.110748 -0.993773
			-0.077206  0.004803 -0.997004
			-0.201101  0.054490 -0.978054
			-0.510989  0.148758 -0.846617
			-0.599378  0.184688 -0.778869
			-0.272620  0.091546 -0.957756
			-0.418468  0.123557 -0.899788
			-0.859057  0.235775 -0.454347
			-0.744569  0.235112 -0.624772
			-0.756244  0.245643 -0.606428
			-0.976794  0.162063 -0.140034
			 0.481864 -0.854746 -0.192916
			 0.279020 -0.612903 -0.739255
			 0.585360 -0.788398  0.189163
			 0.699358 -0.561352  0.442473
			 0.651535 -0.637547  0.411141
			 0.671746 -0.476123  0.567507
			 0.697584 -0.485713  0.526744
			-0.978203  0.004014  0.207614
			-0.966128  0.125829  0.225307
			 0.581185 -0.433736  0.688547
			 0.375091 -0.454908  0.807692
			 0.618311 -0.461971  0.635826
			 0.131336 -0.478205  0.868372
			-0.190832 -0.440075  0.877449
			-0.423272 -0.313931  0.849875
			-0.586799 -0.198714  0.784972
			-0.964657  0.105413  0.241506
			-0.939438  0.083556  0.332376
			-0.982941  0.166861  0.077355
			-0.737541 -0.107444  0.666700
			-0.826802  0.001667  0.562491
			-0.939346  0.110322  0.324743
			 0.063116 -0.177838 -0.982034
			-0.008564 -0.013048 -0.999878
			-0.108061  0.066522 -0.991916
			-0.706745  0.210885 -0.675307
			-0.609992  0.137620 -0.780366
			-0.223537  0.091847 -0.970358
			-0.345810  0.132954 -0.928837
			-0.486473  0.126200 -0.864533
			-0.869564  0.283859 -0.404082
			-0.881010  0.266576 -0.390842
			-0.806881  0.251059 -0.534707
			-0.984456  0.175554  0.005124
			-0.950324  0.257875 -0.174314
			 0.576461 -0.806393 -0.131995
			 0.485026 -0.713776 -0.505247
			 0.320353 -0.752197 -0.575825
			 0.185512 -0.460421 -0.868100
			 0.615787 -0.712501  0.336376
			 0.601382 -0.798879  0.011488
			 0.690269 -0.531321  0.491147
			 0.704596 -0.463921  0.536956
			 0.715873 -0.507807  0.479227
			 0.724012 -0.534735  0.435736
			 0.688303 -0.427888  0.585792
			 0.664453 -0.278150  0.693639
			 0.591387 -0.318040  0.741021
			 0.691598 -0.356384  0.628238
			 0.481526 -0.364532  0.797026
			 0.364792 -0.325422  0.872369
			 0.165171 -0.362099  0.917389
			-0.070413 -0.375977  0.923950
			-0.325885 -0.309892  0.893177
			-0.465195 -0.224218  0.856341
			-0.627638 -0.166747  0.760438
			-0.971434  0.235975 -0.025123
			-0.978990  0.194766  0.060364
			-0.948753  0.252537 -0.189982
			-0.766652 -0.109141  0.632719
			-0.877567 -0.017755  0.479126
			-0.945050  0.065907  0.320214
			-0.985509  0.143749  0.090045
			 0.170157 -0.224843 -0.959423
			 0.150053 -0.088516 -0.984708
			 0.025992  0.016512 -0.999526
			 0.059516  0.040970 -0.997386
			-0.005921  0.096311 -0.995334
			-0.133185  0.123496 -0.983367
			-0.855751  0.222829 -0.466945
			-0.771806  0.167309 -0.613452
			-0.765420  0.120756 -0.632099
			-0.640918  0.112451 -0.759328
			-0.244622  0.145344 -0.958663
			-0.436112  0.145617 -0.888033
			-0.245089  0.190817 -0.950537
			-0.346870  0.179040 -0.920666
			-0.608946  0.130233 -0.782448
			-0.580956  0.141240 -0.801587
			-0.940526  0.248910 -0.231201
			 0.577466 -0.594857 -0.559176
			 0.390993 -0.445798 -0.805226
			 0.706275 -0.622934  0.336347
			 0.762904 -0.644712 -0.048206
			 0.687498 -0.630555 -0.360204
			 0.720162 -0.418549  0.553339
			 0.740097 -0.316282  0.593483
			 0.787189 -0.377647  0.487562
			 0.825906 -0.375432  0.420630
			 0.886795 -0.360030  0.289781
			 0.730113 -0.245784  0.637594
			 0.690861 -0.202686  0.693995
			 0.565066 -0.229102  0.792599
			 0.373453 -0.270572  0.887312
			 0.064274 -0.308770  0.948963
			-0.177579 -0.270868  0.946095
			-0.322401 -0.245312  0.914264
			-0.521428 -0.169829  0.836224
			-0.672220 -0.137090  0.727548
			-0.974844  0.185199 -0.124016
			-0.816456 -0.071593  0.572953
			-0.948710  0.047136  0.312614
			-0.895613 -0.013555  0.444627
			-0.966147  0.024621  0.256813
			-0.989165  0.082150  0.121671
			-0.984822  0.123525 -0.121935
			 0.387255 -0.251675 -0.886957
			 0.413411 -0.272601 -0.868781
			 0.328991 -0.135963 -0.934494
			 0.188601 -0.025504 -0.981723
			 0.308153 -0.027124 -0.950950
			 0.236449  0.017642 -0.971484
			 0.140514  0.100433 -0.984972
			 0.183166  0.168709 -0.968498
			-0.004114  0.144202 -0.989540
			-0.106536  0.190648 -0.975860
			-0.934142  0.179666 -0.308380
			-0.866709  0.151645 -0.475205
			-0.861709  0.096492 -0.498143
			-0.744031  0.101343 -0.660415
			-0.450860  0.169320 -0.876388
			-0.178726  0.246278 -0.952578
			-0.205592  0.282146 -0.937083
			-0.274176  0.231704 -0.933349
			-0.327238  0.235670 -0.915082
			-0.713169  0.111839 -0.692013
			-0.747767  0.130095 -0.651091
			-0.626232  0.148306 -0.765401
			 0.645077 -0.407888 -0.646145
			 0.890557 -0.436626  0.127535
			 0.883834 -0.358696 -0.300291
			 0.800408 -0.276334  0.531966
			 0.767362 -0.261194  0.585605
			 0.757833 -0.191730  0.623642
			 0.790537 -0.177645  0.586083
			 0.871738 -0.214714  0.440421
			 0.917503 -0.222775  0.329485
			 0.948164 -0.316622 -0.027103
			 0.729859 -0.174824  0.660865
			 0.666077 -0.193268  0.720409
			 0.584087 -0.197548  0.787285
			 0.444719 -0.211293  0.870391
			 0.187000 -0.254448  0.948835
			-0.160765 -0.265309  0.950666
			-0.410205 -0.168841  0.896228
			-0.531621 -0.085627  0.842643
			-0.661500 -0.119888  0.740301
			-0.802255 -0.046848  0.595140
			-0.847670  0.014056  0.530337
			-0.939267  0.026317  0.342176
			-0.998854  0.047082  0.008568
			-0.996132  0.040851  0.077795
			-0.985697  0.050521  0.160776
			-0.936271  0.112484 -0.332781
			-0.976990  0.075194 -0.199588
			 0.607721 -0.247317 -0.754659
			 0.456484 -0.104837 -0.883534
			 0.625184 -0.085371 -0.775794
			 0.527168 -0.025180 -0.849388
			 0.370907  0.063525 -0.926495
			 0.336329  0.124099 -0.933532
			 0.366481  0.143691 -0.919263
			 0.441049  0.267008 -0.856845
			 0.286726  0.250713 -0.924625
			 0.073011  0.214874 -0.973909
			-0.056603  0.272780 -0.960410
			-0.923096  0.078625 -0.376446
			-0.852512  0.077498 -0.516930
			-0.836912  0.091008 -0.539718
			-0.444412  0.187478 -0.875985
			-0.021162  0.345782 -0.938076
			-0.270974  0.271888 -0.923391
			-0.107652  0.284724 -0.952546
			-0.382427  0.264702 -0.885259
			-0.893994  0.099997 -0.436779
			-0.814088  0.141111 -0.563336
			-0.800529  0.170720 -0.574463
			-0.573099  0.174071 -0.800785
			 0.766064 -0.251433 -0.591546
			 0.843094 -0.145624  0.517673
			 0.803402 -0.137596  0.579321
			 0.780313 -0.140413  0.609423
			 0.856239 -0.094638  0.507838
			 0.904407 -0.102130  0.414268
			 0.986518 -0.162810  0.016574
			 0.980281 -0.128761  0.149901
			 0.894180 -0.187329 -0.406633
			 0.720255 -0.172740  0.671858
			 0.653223 -0.175081  0.736645
			 0.536124 -0.172833  0.826257
			 0.177340 -0.207330  0.962063
			 0.367892 -0.175962  0.913068
			-0.106380 -0.216205  0.970535
			-0.226899 -0.181305  0.956894
			-0.445195 -0.060136  0.893412
			-0.660486 -0.027305  0.750342
			-0.580536  0.013536  0.814122
			-0.690279  0.016541  0.723354
			-0.749745  0.049274  0.659889
			-0.892216  0.049288  0.448912
			-0.986067  0.061342  0.154623
			-0.995636  0.055437 -0.075075
			-0.995027  0.083670 -0.054046
			-0.965167  0.084649 -0.247561
			 0.891822 -0.076226 -0.445918
			 0.621822 -0.040571 -0.782107
			 0.633669  0.131780 -0.762298
			 0.602653  0.228819 -0.764494
			 0.772407  0.302590 -0.558415
			 0.757395  0.330468 -0.563155
			 0.545138  0.308294 -0.779602
			 0.207911  0.283363 -0.936204
			 0.080543  0.329402 -0.940748
			 0.242801  0.355153 -0.902726
			 0.149464  0.349650 -0.924881
			-0.421117  0.287957 -0.860082
			-0.310980  0.253517 -0.915980
			 0.130631  0.305153 -0.943301
			 0.041913  0.236418 -0.970747
			-0.224574  0.216468 -0.950110
			-0.513112  0.276015 -0.812731
			-0.608064  0.340141 -0.717330
			-0.929604  0.133153 -0.343667
			-0.902140  0.213970 -0.374646
			-0.818047  0.295159 -0.493640
			-0.712496  0.253229 -0.654388
			 0.829146 -0.093160  0.551215
			 0.829589 -0.076828  0.553064
			 0.756548 -0.149162  0.636699
			 0.790279 -0.107270  0.603284
			 0.910571 -0.028877  0.412342
			 0.869598 -0.045982  0.491615
			 0.974775 -0.068468  0.212430
			 0.942851 -0.016165  0.332822
			 0.966933 -0.118114 -0.226029
			 0.722509 -0.146219  0.675723
			 0.653874 -0.150905  0.741402
			 0.366619 -0.096327  0.925371
			 0.541958 -0.129814  0.830319
			 0.068309 -0.164150  0.984067
			 0.202145 -0.098884  0.974351
			-0.250626 -0.103555  0.962529
			-0.127666 -0.033146  0.991263
			-0.199435  0.029913  0.979454
			-0.406634  0.017448  0.913424
			-0.407434  0.088028  0.908982
			-0.489479  0.101434  0.866096
			-0.663345  0.107659  0.740529
			-0.775574  0.115009  0.620692
			-0.920157  0.082279  0.382808
			-0.987205  0.103635 -0.121184
			-0.980583  0.121963  0.153562
			-0.987074  0.155530 -0.038668
			 0.977086 -0.124876 -0.172362
			 0.809838 -0.078355 -0.581397
			 0.964833  0.094417 -0.245320
			 0.913874  0.215635 -0.344000
			 0.964028  0.221516 -0.146906
			 0.889714  0.285140 -0.356516
			 0.812294  0.304968 -0.497165
			 0.682121  0.357618 -0.637824
			 0.448171  0.346236 -0.824175
			 0.493206  0.394287 -0.775426
			 0.393072  0.347574 -0.851286
			-0.648270  0.317145 -0.692218
			-0.575765  0.278355 -0.768774
			-0.425094  0.231817 -0.874961
			 0.335391  0.302330 -0.892250
			 0.311163  0.254020 -0.915779
			 0.226074  0.208638 -0.951504
			-0.029933  0.177865 -0.983599
			-0.167893  0.180218 -0.969192
			-0.361624  0.202316 -0.910108
			-0.416928  0.204472 -0.885642
			-0.817495  0.336476 -0.467425
			-0.961917  0.190613 -0.195914
			-0.916850  0.292831 -0.271361
			 0.855299 -0.022062  0.517666
			 0.823641 -0.044210  0.565386
			 0.758826 -0.105845  0.642636
			 0.974707  0.070299  0.212144
			 0.913049 -0.000331  0.407849
			 0.964919  0.063632  0.254720
			 0.901760  0.023439  0.431602
			 0.990103  0.071404  0.120817
			 0.625998 -0.080354  0.775674
			 0.098902  0.005022  0.995085
			 0.457338 -0.032773  0.888689
			 0.274760 -0.027546  0.961118
			 0.061138  0.035537  0.997497
			-0.196178  0.095792  0.975878
			-0.245599  0.158500  0.956326
			-0.370411  0.196270  0.907895
			-0.560247  0.193123  0.805498
			-0.624914  0.262562  0.735217
			-0.756448  0.200369  0.622606
			-0.907818  0.185669  0.376023
			-0.960576  0.249803  0.122035
			-0.958321  0.275741 -0.074754
			 0.986593  0.163075  0.006408
			 0.981922  0.188378 -0.018520
			 0.946019  0.265303 -0.186181
			 0.824345  0.342384 -0.450807
			 0.686246  0.347604 -0.638935
			 0.641832  0.306839 -0.702782
			-0.789600  0.326401 -0.519610
			-0.646140  0.251947 -0.720434
			-0.834077  0.277296 -0.476887
			-0.664344  0.243327 -0.706710
			 0.570193  0.273364 -0.774695
			 0.518779  0.234813 -0.822029
			 0.435952  0.171370 -0.883504
			 0.110448  0.153592 -0.981942
			-0.254891  0.156761 -0.954179
			-0.158820  0.141241 -0.977153
			-0.494068  0.235472 -0.836929
			-0.515644  0.158251 -0.842062
			-0.702074  0.221901 -0.676647
			-0.903185  0.338712 -0.263689
			-0.931234  0.326096 -0.162680
			-0.938539  0.341207 -0.052178
			 0.871040  0.013407  0.491030
			 0.817664  0.021733  0.575286
			 0.797638  0.003047  0.603129
			 0.733643 -0.051094  0.677611
			 0.939205  0.070267  0.336089
			 0.979844  0.148228  0.133919
			 0.962741  0.131673  0.236203
			 0.920226  0.054068  0.387634
			 0.669750  0.032770  0.741863
			 0.522823  0.033375  0.851788
			 0.331504  0.077851  0.940236
			 0.202157  0.066018  0.977125
			-0.044533  0.112388  0.992666
			-0.074982  0.168656  0.982819
			-0.137405  0.226111  0.964362
			-0.249358  0.264872  0.931484
			-0.438018  0.298517  0.847955
			-0.392220  0.278782  0.876610
			-0.614107  0.283869  0.736404
			-0.720391  0.356623  0.594859
			-0.842664  0.336308  0.420493
			-0.867200  0.391825  0.307307
			-0.924995  0.364307  0.108003
			 0.975798  0.213061  0.049225
			 0.963018  0.253403 -0.091562
			 0.900156  0.264682 -0.345923
			 0.799173  0.255688 -0.544009
			-0.958190  0.276194 -0.074755
			-0.897903  0.252869 -0.360315
			 0.784641  0.229939 -0.575731
			 0.725149  0.190961 -0.661583
			 0.717915  0.124500 -0.684907
			 0.516638  0.132050 -0.845960
			 0.238841  0.123495 -0.963174
			-0.034364  0.110003 -0.993337
			-0.366793  0.149067 -0.918282
			-0.391197  0.155758 -0.907031
			-0.318327  0.118721 -0.940517
			-0.782337  0.176163 -0.597424
			-0.610663  0.172541 -0.772865
			-0.952267  0.198537 -0.231883
			-0.914127  0.353392  0.198709
			-0.949905  0.277967  0.142878
			-0.947637  0.274227  0.163657
			 0.863708  0.036838  0.502645
			 0.706781  0.066095  0.704338
			 0.722111  0.066157  0.688606
			 0.804272  0.033966  0.593289
			 0.982426  0.186642  0.001690
			 0.969064  0.111443  0.220217
			 0.910388  0.050249  0.410692
			 0.534079  0.102707  0.839173
			 0.358770  0.145765  0.921975
			 0.194122  0.173131  0.965579
			 0.101140  0.134608  0.985724
			 0.018635  0.222385  0.974781
			-0.117174  0.252812  0.960394
			-0.222642  0.201023  0.953950
			-0.473203  0.216280  0.853992
			-0.666358  0.252062  0.701735
			-0.787690  0.326797  0.522253
			-0.836356  0.410066  0.363807
			 0.984222  0.173354 -0.035434
			 0.950663  0.194318 -0.241828
			-0.930465  0.260792  0.257338
			-0.915004  0.252974  0.314279
			-0.962268  0.250167  0.107032
			 0.954023  0.115180 -0.276720
			 0.866515  0.109427 -0.487009
			 0.743520  0.117817 -0.658254
			 0.412998  0.105616 -0.904587
			 0.107638  0.091595 -0.989962
			-0.187400  0.081645 -0.978885
			-0.659681  0.157236 -0.734913
			-0.513056  0.094962 -0.853086
			-0.871672  0.188869 -0.452234
			-0.944521  0.185637  0.270958
			-0.985292  0.170880 -0.000614
			-0.883728  0.265260  0.385567
			-0.912528  0.257617  0.317688
			-0.877895  0.260001  0.402119
			-0.857577  0.244496  0.452530
			 0.467422  0.099314  0.878438
			 0.597483  0.101206  0.795469
			 0.673405  0.061608  0.736702
			 0.591079  0.103614  0.799931
			 0.572480  0.120805  0.810970
			 0.832023  0.026188  0.554123
			 0.734486  0.038343  0.677540
			 0.985517  0.096521  0.139424
			 0.929035  0.040413  0.367779
			 0.285730  0.168337  0.943409
			 0.123803  0.219761  0.967666
			 0.029139  0.204096  0.978517
			-0.090882  0.185634  0.978407
			-0.278931  0.202555  0.938706
			-0.370331  0.208870  0.905112
			-0.602105  0.222312  0.766842
			-0.761346  0.254482  0.596316
			-0.807936  0.231234  0.542006
			-0.731151  0.213928  0.647806
			-0.848428  0.240049  0.471748
			-0.813220  0.209348  0.542997
			 0.984517  0.056647  0.165886
			 0.972155  0.076069 -0.221648
			 0.989891  0.030576  0.138497
			 0.903631  0.082421 -0.420308
			 0.600055  0.078422 -0.796105
			 0.262680  0.070259 -0.962322
			-0.061286  0.067595 -0.995829
			-0.338810  0.081498 -0.937318
			-0.939469  0.161332 -0.302276
			-0.817042  0.128949 -0.561974
			-0.622907  0.106225 -0.775051
			-0.708148  0.121560  0.695521
			-0.899112  0.142444  0.413892
			-0.973918  0.160105  0.160780
			-0.828423  0.241100  0.505555
			-0.768976  0.236317  0.593995
			-0.686848  0.215680  0.694062
			 0.397483  0.122209  0.909435
			 0.187912  0.154923  0.969891
			 0.381430  0.152797  0.911682
			 0.469132  0.095852  0.877911
			 0.596716  0.060547  0.800165
			 0.375442  0.136527  0.916735
			 0.919260  0.035995  0.392002
			 0.779217  0.019438  0.626453
			 0.683156  0.038555  0.729254
			 0.137671  0.147581  0.979421
			-0.333009  0.180811  0.925425
			-0.071917  0.151139  0.985893
			-0.524006  0.214872  0.824165
			-0.700780  0.230046  0.675268
			-0.594919  0.207717  0.776483
			-0.458739  0.174369  0.871294
			-0.623653  0.197201  0.756419
			-0.495336  0.152607  0.855192
			 0.881365  0.020699  0.471982
			 0.996388  0.074359 -0.041008
			 0.979845  0.036759  0.196350
			 0.889706  0.006186  0.456493
			 0.995251  0.092585  0.030044
			 0.752889  0.076454 -0.653692
			 0.947670  0.078474 -0.309457
			 0.456711  0.063247 -0.887364
			 0.126349  0.040563 -0.991156
			-0.203681  0.047753 -0.977872
			-0.341137  0.088359 -0.935852
			-0.979351  0.145475 -0.140391
			-0.875572  0.123983 -0.466907
			-0.622765  0.051199 -0.780732
			-0.302580  0.089554  0.948908
			-0.403711  0.079926  0.911389
			-0.613521  0.116250  0.781075
			-0.708201  0.173058  0.684473
			-0.763078  0.203381  0.613472
			-0.924605  0.162577  0.344492
			-0.594468  0.211047  0.775930
			-0.485903  0.184467  0.854325
			-0.476573  0.193848  0.857497
			 0.259630  0.136321  0.956038
			 0.413153  0.079451  0.907189
			 0.231480  0.102183  0.967458
			 0.468272  0.071211  0.880710
			 0.148241  0.141997  0.978704
			 0.584858  0.034702  0.810393
			 0.703175  0.027984  0.710466
			-0.254252  0.165940  0.952796
			-0.006533  0.138770  0.990303
			-0.321450  0.165473  0.932357
			-0.198529  0.130238  0.971403
			-0.203398  0.155932  0.966599
			-0.299064  0.166519  0.939592
			-0.128764  0.111169  0.985424
			 0.674126  0.017694  0.738405
			 0.948632  0.078172  0.306572
			 0.834275  0.026798  0.550698
			 0.881126  0.126236  0.455720
			 0.977338  0.072155  0.199006
			 0.693802  0.053648 -0.718165
			 0.977641  0.019137 -0.209410
			 0.350945  0.044568 -0.935335
			 0.034221  0.016278 -0.999282
			-0.301788 -0.012701 -0.953291
			-0.991954  0.125871  0.013549
			-0.946895  0.053881 -0.316996
			-0.795008  0.006745 -0.606561
			-0.547927 -0.001280 -0.836525
			 0.075520  0.082822  0.993699
			-0.031169  0.093312  0.995149
			-0.220875  0.141962  0.964915
			-0.370328  0.195727  0.908046
			-0.334167  0.179285  0.925305
			-0.573823  0.191370  0.796307
			-0.823618  0.147530  0.547620
			 0.270609  0.097447  0.957745
			 0.023439  0.123537  0.992063
			 0.193267  0.086643  0.977313
			 0.355707  0.066275  0.932245
			 0.502131  0.057128  0.862903
			 0.588917  0.026676  0.807753
			 0.372642  0.064122  0.925757
			 0.770516  0.068052  0.633777
			 0.701762  0.132072  0.700062
			 0.761633  0.103386  0.639708
			 0.586725  0.155272  0.794760
			 0.925382  0.023634  0.378298
			 0.890751  0.007624 -0.454428
			 0.516625  0.009579 -0.856158
			 0.319843  0.014216 -0.947364
			 0.999700  0.009142  0.022724
			-0.022249 -0.011432 -0.999687
			-0.290815 -0.007744 -0.956748
			-0.985970  0.123629  0.112158
			-0.741589 -0.000358 -0.670854
			-0.951425  0.099141  0.291481
			-0.999977 -0.005600 -0.003699
			-0.876825 -0.043203 -0.478865
			-0.437745  0.003247 -0.899093
			 0.261794  0.091829  0.960745
			 0.068622  0.133790  0.988631
			-0.096782  0.153437  0.983408
			-0.336085  0.168630  0.926613
			-0.591894  0.109724  0.798512
			 0.476085  0.084851  0.875296
			 0.262467  0.114049  0.958177
			 0.678493  0.062031  0.731983
			 0.424212  0.121872  0.897324
			 0.892826  0.047818  0.447856
			 0.993340  0.060784  0.097882
			 0.977569  0.054248 -0.203511
			 0.995491  0.054411  0.077704
			 0.769582  0.015248 -0.638366
			 0.207989  0.011890 -0.978059
			 0.391041 -0.007938 -0.920339
			 0.158577  0.012970 -0.987261
			-0.098901  0.012973 -0.995013
			-0.601429 -0.044485 -0.797687
			-0.857405  0.035250  0.513434
			-0.977199 -0.061920  0.203095
			-0.948876 -0.095426 -0.300879
			-0.748578 -0.084790 -0.657604
			-0.228287 -0.006608 -0.973572
			 0.098062  0.140446  0.985220
			-0.013578  0.082219  0.996522
			-0.483370  0.027118  0.874996
			 0.845071  0.096118  0.525943
			 0.636008  0.080126  0.767512
			 0.418453  0.070102  0.905529
			 0.990899  0.091911 -0.098346
			 0.932519  0.099541  0.347131
			 0.955442  0.065422 -0.287839
			 0.650876  0.013595 -0.759063
			 0.286570  0.004559 -0.958048
			-0.001950 -0.015557 -0.999877
			-0.432773 -0.069931 -0.898787
			-0.749610 -0.033527  0.661030
			-0.958187 -0.078777  0.275084
			-0.991027 -0.110164 -0.075696
			-0.751219 -0.113791 -0.650171
			-0.884407 -0.106019 -0.454515
			 0.293787  0.021408  0.955631
			-0.104278  0.011202  0.994485
			-0.348363  0.005378  0.937344
			 0.654759  0.080511  0.751538
			 0.920388  0.069092  0.384853
			 0.996984  0.071809  0.029436
			 0.838692  0.074630 -0.539469
			 0.539818  0.062863 -0.839431
			 0.291127  0.080857 -0.953261
			 0.023522  0.021405 -0.999494
			-0.266390 -0.030337 -0.963388
			-0.600687 -0.082795 -0.795185
			-0.426703  0.021231  0.904143
			-0.528577  0.017343  0.848708
			-0.775465 -0.029609  0.630696
			-0.942599 -0.059115  0.328652
			-0.995953 -0.080760 -0.039435
			-0.623153 -0.084648 -0.777506
			-0.927421 -0.089784 -0.363083
			 0.418916  0.039912  0.907148
			 0.092869  0.018950  0.995498
			-0.096216  0.040313  0.994544
			 0.595334  0.051045  0.801855
			 0.859465  0.047224  0.509009
			 0.895462  0.092918 -0.435333
			 0.996409  0.058520 -0.061191
			 0.840983  0.059372  0.537794
			 0.591913  0.106380 -0.798951
			 0.255313  0.112032 -0.960346
			 0.064007  0.098655 -0.993061
			-0.203462  0.042868 -0.978144
			-0.118159  0.074190  0.990219
			-0.194891  0.043844  0.979844
			-0.562681  0.016416  0.826511
			-0.862139 -0.043754  0.504780
			-0.999069 -0.043133  0.001054
			-0.882506 -0.046000 -0.468046
			-0.548830 -0.023705 -0.835598
			 0.260651  0.074536  0.962552
			 0.225140  0.069125  0.971871
			 0.466007  0.048662  0.883442
			 0.793358  0.106976 -0.599282
			 0.758331 -0.042985  0.650451
			 0.986434 -0.156547 -0.049414
			 0.715726  0.000270 -0.698381
			 0.483996  0.100856 -0.869239
			 0.194503  0.090031 -0.976761
			-0.102511  0.157018 -0.982261
			-0.640017  0.070939 -0.765079
			-0.334303  0.180961 -0.924929
			 0.059796  0.077821  0.995173
			-0.297277  0.079169  0.951503
			-0.601974  0.137775  0.786540
			-0.759936  0.110925  0.640463
			-0.935544  0.018942  0.352701
			-0.999789  0.018799  0.008248
			-0.955324  0.066806 -0.287912
			 0.257106  0.044212  0.965371
			 0.846829 -0.111896  0.519961
			 0.497302 -0.027428  0.867144
			 0.993008 -0.109124  0.045023
			 0.865930 -0.140872 -0.479918
			 0.374612  0.085218 -0.923257
			 0.615081 -0.118635 -0.779487
			 0.222904 -0.031417 -0.974334
			 0.039933  0.103788 -0.993797
			-0.306720  0.156088 -0.938914
			-0.511063  0.340126 -0.789385
			-0.615245  0.240982 -0.750601
			-0.751914  0.233494 -0.616527
			-0.087894  0.134128  0.987058
			-0.302889  0.151012  0.940985
			-0.646664  0.211516  0.732862
			-0.895312  0.245057  0.371973
			-0.957035  0.215101  0.194463
			-0.923153  0.278066 -0.265457
			 0.123175  0.043867  0.991415
			-0.166451  0.112175  0.979648
			 0.861137 -0.080578  0.501947
			 0.385103 -0.039450  0.922030
			 0.948135 -0.125226 -0.292162
			 0.762900 -0.152447 -0.628286
			 0.434903 -0.139689 -0.889576
			-0.190058  0.090842 -0.977561
			 0.054902 -0.172912 -0.983406
			-0.292673 -0.099532 -0.951018
			-0.682993  0.151385 -0.714565
			-0.955896  0.190464 -0.223576
			-0.491301  0.212377  0.844701
			-0.853242  0.226567  0.469729
			-0.026548  0.048087  0.998490
			-0.231420  0.089365  0.968741
			-0.651454  0.116223  0.749734
			 0.977691 -0.199582 -0.065474
			 0.696493 -0.200182  0.689075
			 0.264155 -0.059117  0.962667
			 0.736870 -0.188025 -0.649360
			 0.404812 -0.160723 -0.900164
			-0.367014 -0.192565 -0.910066
			 0.294788 -0.119398 -0.948074
			 0.014823 -0.145994 -0.989174
			-0.311631 -0.177466 -0.933484
			-0.745080 -0.113297 -0.657282
			-0.899580  0.232167 -0.369938
			-0.996518  0.079642  0.024663
			-0.940300  0.312093 -0.135770
			-0.962213  0.231661  0.143103
			-0.830283  0.266307  0.489602
			 0.132959  0.043988  0.990145
			-0.456783  0.116709  0.881889
			-0.189639  0.059116  0.980073
			-0.532109  0.090785  0.841795
			-0.817369  0.042688  0.574531
			 0.941981 -0.335455 -0.011872
			 0.907138 -0.211092  0.364062
			 0.415193 -0.047479  0.908493
			 0.706024 -0.043874  0.706828
			 0.952103 -0.188700 -0.240609
			 0.896866 -0.093881 -0.432225
			 0.582088 -0.115345 -0.804903
			-0.647306 -0.157283 -0.745827
			 0.467297 -0.035080 -0.883404
			 0.161085 -0.075134 -0.984077
			-0.251345 -0.149242 -0.956322
			-0.715393 -0.152616 -0.681851
			-0.928134 -0.104673 -0.357226
			-0.983394 -0.019660  0.180415
			 0.483015  0.068508  0.872928
			 0.243331  0.082404  0.966437
			-0.782523  0.072263  0.618414
			-0.879260  0.040376  0.474628
			-0.615883  0.049285  0.786295
			 0.056867  0.035098  0.997765
			-0.387872  0.031716  0.921168
			 0.977779 -0.036992  0.206350
			 0.813178  0.079728  0.576529
			 0.980065  0.077091 -0.183109