<?xml version="1.0"?>
<VTKFile type="PolyData" version="0.1" byte_order="LittleEndian" compressor="vtkZLibDataCompressor">
	<PolyData>
		<Piece NumberOfPoints="21461" NumberOfVerts="0" NumberOfLines="0" NumberOfStrips="0" NumberOfPolys="42930">
		<PointData Normals="Normals">
		<DataArray type="Float32" Name="Normals" NumberOfComponents="3" format="ascii">
			 0.218118  0.172771  0.960507
			 0.026461  0.077188  0.996665
			-0.002412 -0.124395  0.992230
			 0.166701  0.013346  0.985917
			 0.330020  0.276605  0.902539
			 0.264789  0.374981  0.888412
			 0.061639  0.267657  0.961541
			-0.163335 -0.044678  0.985558
			 0.007959 -0.243424  0.969887
			-0.145625 -0.333686  0.931368
			-0.219134 -0.260904  0.940165
			 0.058678 -0.167592  0.984109
			 0.237583  0.085634  0.967585
			 0.360891  0.223930  0.905325
			 0.374198  0.398632  0.837298
			 0.436035  0.356880  0.826142
			 0.124485  0.384847  0.914547
			 0.274715  0.443765  0.852997
			-0.084544  0.161864  0.983185
			-0.321867 -0.280854  0.904170
			-0.267164 -0.088459  0.959582
			-0.153536 -0.373881  0.914680
			-0.290962 -0.407718  0.865510
			-0.019310 -0.207251  0.978097
			 0.185262 -0.003647  0.982683
			 0.292000  0.142712  0.945711
			 0.432175  0.308725  0.847298
			 0.452317  0.398631  0.797812
			 0.369384  0.427046  0.825341
			 0.511251  0.404465  0.758308
			-0.078063  0.259251  0.962650
			-0.001636  0.384706  0.923038
			 0.168555  0.436928  0.883563
			 0.293739  0.442270  0.847417
			-0.278421  0.036897  0.959750
			-0.390400 -0.214054  0.895416
			-0.399663 -0.369762  0.838776
			-0.131121 -0.288712  0.948395
			-0.250050 -0.392248  0.885221
			-0.317985 -0.413172  0.853331
			 0.066252 -0.081770  0.994447
			 0.198747  0.036631  0.979366
			 0.342774  0.195716  0.918804
			 0.441118  0.363507  0.820535
			 0.523958  0.400510  0.751705
			 0.437959  0.407147  0.801513
			 0.367190  0.426953  0.826367
			 0.592897  0.484018  0.643583
			 0.507597  0.491063  0.707956
			 0.595242  0.424656  0.682168
			-0.214470  0.193921  0.957286
			-0.017491  0.299503  0.953935
			 0.168229  0.347331  0.922529
			 0.261234  0.407744  0.874930
			 0.353080  0.421652  0.835191
			-0.376533 -0.079160  0.923015
			-0.446770 -0.275441  0.851193
			-0.406600 -0.381504  0.830139
			-0.479835 -0.326455  0.814362
			 0.012739 -0.140357  0.990019
			-0.041692 -0.245585  0.968478
			-0.190084 -0.337471  0.921944
			-0.261017 -0.401443  0.877903
			-0.319638 -0.394626  0.861453
			-0.377920 -0.394384  0.837639
			 0.157371 -0.045335  0.986498
			 0.234086  0.058602  0.970448
			 0.357433  0.236173  0.903584
			 0.414529  0.395093  0.819797
			 0.612290  0.414977  0.672975
			 0.504417  0.403623  0.763316
			 0.415642  0.422015  0.805696
			 0.594425  0.558114  0.578936
			 0.660127  0.553384  0.507935
			 0.680290  0.485430  0.549148
			 0.468107  0.523120  0.712195
			 0.540925  0.611057  0.577935
			-0.233509  0.016778  0.972210
			-0.109577  0.114072  0.987411
			 0.002257  0.251120  0.967953
			 0.061837  0.272774  0.960089
			 0.107847  0.314465  0.943123
			 0.255893  0.353334  0.899819
			 0.247169  0.327023  0.912120
			 0.209759  0.312468  0.926480
			 0.327564  0.364198  0.871815
			 0.462325  0.424389  0.778556
			 0.484727  0.410185  0.772520
			-0.422492 -0.224605  0.878096
			-0.441761 -0.366455  0.818876
			-0.516697 -0.277219  0.810045
			-0.495733 -0.325042  0.805355
			-0.541489 -0.292082  0.788339
			 0.023736 -0.163533  0.986252
			-0.125800 -0.335123  0.933738
			-0.071500 -0.193179  0.978555
			-0.227104 -0.418280  0.879469
			-0.216769 -0.455039  0.863685
			-0.215375 -0.401576  0.890140
			-0.309933 -0.373907  0.874148
			-0.348554 -0.382470  0.855703
			-0.368206 -0.380777  0.848194
			-0.423942 -0.360669  0.830777
			 0.174514  0.023828  0.984366
			 0.319653  0.212282  0.923449
			 0.391248  0.300011  0.870011
			 0.462521  0.447763  0.765234
			 0.582958  0.421927  0.694361
			 0.716329  0.463065  0.521961
			 0.656494  0.647025  0.387782
			 0.708580  0.609474  0.355605
			 0.732041  0.577614  0.361219
			 0.766967  0.545206  0.338396
			 0.522408  0.563440  0.640020
			 0.618848  0.616521  0.486753
			 0.596978  0.689726  0.409750
			-0.280826 -0.094654  0.955080
			-0.199462  0.040160  0.979082
			-0.103915  0.144782  0.983992
			-0.104537  0.191589  0.975892
			-0.006333  0.287187  0.957854
			-0.038495  0.317577  0.947451
			 0.186975  0.303639  0.934261
			 0.152350  0.335661  0.929581
			 0.056202  0.328639  0.942782
			-0.063723  0.347237  0.935610
			 0.296366  0.334496  0.894583
			 0.256349  0.316900  0.913159
			 0.234323  0.314224  0.919976
			 0.372445  0.359693  0.855515
			 0.581721  0.452583  0.675847
			 0.643473  0.528726  0.553527
			 0.601170  0.544884  0.584548
			 0.516974  0.423764  0.743749
			-0.396929 -0.188649  0.898253
			-0.462228 -0.183230  0.867624
			-0.552414 -0.183449  0.813133
			-0.579858 -0.238801  0.778935
			-0.472852 -0.332120  0.816154
			-0.521926 -0.279251  0.805985
			-0.559159 -0.288243  0.777340
			-0.585226 -0.257154  0.769014
			 0.078881 -0.269771  0.959688
			 0.027263 -0.391870  0.919617
			 0.031314 -0.163320  0.986076
			-0.129437 -0.416558  0.899847
			-0.165516 -0.479615  0.861727
			-0.091083 -0.470786  0.877533
			-0.086607 -0.466571  0.880234
			-0.165133 -0.380580  0.909885
			-0.274191 -0.332552  0.902346
			-0.364418 -0.325425  0.872524
			-0.375323 -0.363992  0.852433
			-0.437582 -0.321858  0.839601
			 0.217819 -0.033216  0.975424
			 0.302189  0.084071  0.949534
			 0.407769  0.138436  0.902529
			 0.478006  0.275781  0.833939
			 0.521678  0.381234  0.763225
			 0.576566  0.546261  0.607594
			 0.718618  0.507199  0.475749
			 0.781326  0.575148  0.242352
			 0.655863  0.744011  0.127640
			 0.697715  0.704454  0.130148
			 0.749354  0.643961  0.154218
			 0.785916  0.609094  0.106490
			 0.790497  0.608961  0.065428
			 0.752545  0.546771  0.367039
			 0.736223  0.625154  0.259147
			 0.653966  0.700103  0.286679
			-0.301910 -0.055671  0.951710
			-0.288949  0.005383  0.957329
			-0.311786  0.096908  0.945197
			-0.208575  0.217140  0.953597
			-0.189589  0.292791  0.937192
			 0.212949  0.337893  0.916778
			 0.213519  0.397582  0.892378
			 0.089719  0.388953  0.916878
			-0.041959  0.376948  0.925284
			-0.224439  0.373649  0.900007
			-0.185702  0.407879  0.893951
			 0.304175  0.349646  0.886130
			 0.373880  0.417075  0.828409
			 0.268487  0.367492  0.890430
			 0.459239  0.491677  0.739833
			 0.707060  0.608165  0.360835
			 0.501961  0.585458  0.636610
			 0.644930  0.677989  0.352700
			-0.455797 -0.080297  0.886454
			-0.440844  0.016800  0.897427
			-0.513899 -0.069717  0.855013
			-0.588532 -0.140003  0.796260
			-0.615049 -0.198927  0.762983
			-0.607366 -0.239571  0.757438
			-0.470139 -0.271986  0.839638
			-0.522329 -0.248378  0.815770
			-0.568013 -0.221423  0.792675
			-0.616068 -0.232056  0.752735
			 0.190351 -0.205402  0.959988
			 0.045803 -0.481436  0.875284
			 0.130743 -0.358449  0.924349
			-0.038375 -0.508916  0.859960
			 0.089242 -0.419472  0.903371
			 0.053359 -0.520563  0.852154
			-0.018285 -0.373786  0.927335
			-0.097352 -0.418079  0.903179
			-0.128917 -0.429437  0.893848
			-0.213300 -0.363616  0.906800
			-0.190968 -0.427449  0.883640
			-0.275838 -0.375314  0.884903
			-0.331141 -0.338730  0.880686
			-0.413767 -0.297431  0.860425
			-0.362283 -0.329269  0.871971
			 0.303346 -0.056108  0.951227
			 0.392463 -0.062668  0.917631
			 0.499258  0.103222  0.860283
			 0.587471  0.191511  0.786258
			 0.615082  0.367576  0.697540
			 0.705785  0.473841  0.526632
			 0.754687  0.650273  0.087134
			 0.771979  0.610329 -0.177612
			 0.705119  0.708885 -0.017027
			 0.667662  0.709117 -0.226675
			 0.700695  0.687223 -0.191705
			 0.759679  0.633816 -0.145482
			 0.756967  0.610306 -0.233512
			 0.824682  0.406528  0.393236
			 0.868757  0.454028  0.197785
			 0.846498  0.513550  0.140383
			 0.792036  0.607573 -0.059440
			-0.361557  0.113952  0.925360
			-0.346515  0.217911  0.912383
			 0.131981  0.463554  0.876184
			 0.357264  0.482512  0.799715
			 0.296610  0.509533  0.807712
			-0.050664  0.430906  0.900973
			-0.336537  0.320972  0.885279
			-0.310523  0.443689  0.840664
			-0.197193  0.478097  0.855884
			-0.284661  0.459613  0.841263
			 0.367622  0.445943  0.816082
			 0.463297  0.629449  0.623819
			 0.596361  0.712197  0.370308
			 0.690884  0.721931  0.038663
			-0.496629  0.018521  0.867765
			-0.470194  0.055608  0.880809
			-0.567717 -0.023644  0.822884
			-0.616208 -0.087549  0.782702
			-0.630852 -0.145267  0.762184
			-0.642012 -0.214782  0.735995
			-0.651643 -0.177613  0.737438
			-0.623298 -0.207505  0.753950
			-0.646217 -0.200794  0.736265
			-0.654482 -0.204978  0.727762
			-0.435703 -0.294536  0.850536
			-0.477035 -0.267381  0.837224
			-0.517571 -0.244246  0.820039
			-0.542769 -0.234630  0.806443
			-0.570672 -0.214052  0.792789
			-0.614498 -0.191065  0.765432
			 0.266263 -0.239800  0.933595
			 0.145238 -0.445554  0.883395
			 0.174392 -0.459613  0.870829
			 0.248348 -0.363507  0.897879
			 0.076003 -0.296068  0.952138
			 0.189010 -0.251992  0.949092
			 0.237618 -0.349577  0.906275
			-0.053010 -0.358059  0.932193
			-0.093751 -0.390720  0.915723
			 0.073693 -0.300399  0.950963
			 0.016758 -0.316285  0.948516
			-0.113751 -0.419660  0.900525
			-0.179042 -0.429545  0.885119
			-0.142681 -0.419820  0.896322
			-0.281511 -0.394933  0.874516
			-0.403012 -0.311165  0.860672
			-0.328950 -0.361325  0.872488
			-0.385340 -0.332251  0.860885
			 0.341820 -0.231643  0.910769
			 0.447756 -0.070626  0.891362
			 0.526482  0.038519  0.849313
			 0.666400  0.177100  0.724256
			 0.727076  0.269203  0.631578
			 0.742246  0.639660 -0.199764
			 0.650708  0.527977 -0.545728
			 0.671923  0.525493 -0.521897
			 0.712614  0.619076 -0.330041
			 0.575827  0.607366 -0.547293
			 0.603617  0.596490 -0.529005
			 0.639039  0.574316 -0.511654
			 0.820200  0.298238  0.488186
			 0.773635  0.341911  0.533466
			 0.845477  0.444115  0.296531
			 0.866454  0.497218  0.045079
			 0.842908  0.507616 -0.178416
			 0.846661  0.511135 -0.148010
			-0.070753  0.505844  0.859719
			 0.326198  0.624460  0.709679
			 0.130023  0.584405  0.800977
			-0.429990  0.193553  0.881842
			-0.399058  0.392948  0.828459
			-0.340678  0.497725  0.797627
			-0.342166  0.496055  0.798030
			-0.195758  0.580073  0.790692
			-0.286967  0.517004  0.806447
			 0.494341  0.739818  0.456394
			 0.637691  0.762805  0.107139
			 0.680782  0.645545 -0.346131
			 0.656683  0.709475 -0.255758
			-0.523197  0.206850  0.826727
			-0.573642  0.143372  0.806461
			-0.577852  0.099620  0.810039
			-0.623563 -0.030312  0.781185
			-0.650725 -0.099988  0.752701
			-0.646385 -0.122524  0.753109
			-0.687237 -0.180177  0.703734
			-0.694867 -0.201268  0.690399
			-0.638387 -0.143348  0.756249
			-0.649234 -0.217560  0.728809
			-0.725959 -0.258299  0.637390
			-0.670081 -0.264942  0.693395
			-0.427043 -0.304847  0.851294
			-0.463768 -0.285957  0.838539
			-0.505043 -0.261617  0.822489
			-0.524386 -0.244642  0.815580
			-0.552351 -0.215359  0.805313
			-0.596843 -0.190561  0.779401
			-0.647982 -0.166181  0.743305
			 0.290874 -0.331791  0.897389
			 0.145553 -0.225369  0.963340
			 0.184665 -0.128124  0.974414
			 0.348950 -0.041480  0.936223
			 0.349422 -0.200478  0.915266
			 0.343476 -0.247475  0.905969
			-0.019634 -0.333868  0.942415
			-0.078905 -0.364548  0.927836
			-0.116404 -0.386070  0.915095
			-0.123509 -0.394964  0.910356
			-0.131354 -0.412596  0.901394
			 0.156076 -0.232680  0.959948
			 0.264989 -0.165720  0.949904
			 0.089502 -0.259572  0.961567
			-0.146580 -0.432972  0.889409
			-0.182402 -0.432406  0.883037
			-0.232693 -0.417210  0.878516
			-0.258330 -0.405278  0.876935
			-0.312053 -0.374863  0.872984
			-0.371589 -0.332459  0.866829
			 0.390904 -0.158400  0.906699
			 0.424124 -0.093031  0.900813
			 0.510113  0.007309  0.860076
			 0.458131 -0.115261  0.881380
			 0.581310  0.182205  0.793019
			 0.471084  0.404894 -0.783671
			 0.509891  0.400828 -0.761149
			 0.586471  0.522089 -0.619253
			 0.505198  0.401619 -0.763857
			 0.726773  0.532615 -0.433731
			 0.595798  0.552000 -0.583370
			 0.431790  0.480284 -0.763469
			 0.414946  0.467745 -0.780407
			 0.451568  0.464958 -0.761512
			 0.707662  0.327200  0.626222
			 0.820948  0.408016  0.399459
			 0.879479  0.459892  0.122539
			 0.865782  0.480253 -0.140634
			 0.791751  0.469586 -0.390667
			 0.762146  0.462184 -0.453343
			-0.028233  0.654784  0.755288
			 0.246207  0.732039  0.635217
			-0.465654  0.301416  0.832055
			-0.365850  0.454893  0.811927
			-0.300766  0.543515  0.783666
			-0.344773  0.507235  0.789838
			-0.350277  0.508710  0.786461
			-0.345633  0.495649  0.796787
			-0.345421  0.500786  0.793661
			 0.039959  0.730474  0.681770
			-0.176286  0.613040  0.770133
			 0.337334  0.796924  0.501116
			 0.540840  0.807301  0.236130
			 0.627490  0.728855 -0.273909
			 0.621043  0.769843 -0.147132
			 0.560288  0.593358 -0.577931
			 0.559491  0.618687 -0.551540
			-0.487486  0.304513  0.818309
			-0.537799  0.265148  0.800293
			-0.593042  0.144267  0.792142
			-0.611615  0.019179  0.790923
			-0.583204 -0.022327  0.812019
			-0.600728 -0.041115  0.798396
			-0.656669 -0.066239  0.751265
			-0.790146 -0.213441  0.574554
			-0.727932 -0.104962  0.677567
			-0.837220 -0.119064  0.533747
			-0.649698 -0.045488  0.758830
			-0.643731 -0.228199  0.730435
			-0.625428 -0.156369  0.764453
			-0.612490 -0.058328  0.788323
			-0.678791 -0.297751  0.671258
			-0.853820 -0.289237  0.432821
			-0.814349 -0.426567  0.393544
			-0.717561 -0.335802  0.610199
			-0.391120 -0.326619  0.860433
			-0.477399 -0.277866  0.833595
			-0.440390 -0.287104  0.850663
			-0.485167 -0.261333  0.834457
			-0.512340 -0.238640  0.824960
			-0.541867 -0.217625  0.811800
			-0.576454 -0.198573  0.792634
			-0.614763 -0.178929  0.768148
			-0.653254 -0.142895  0.743532
			 0.317520 -0.076863  0.945131
			 0.379602  0.062384  0.923044
			-0.030995 -0.320877  0.946614
			-0.078953 -0.357205  0.930683
			-0.109727 -0.360521  0.926275
			-0.138629 -0.379123  0.914903
			-0.132187 -0.397763  0.907916
			-0.173800 -0.422884  0.889361
			-0.163934 -0.388412  0.906786
			 0.259612 -0.051043  0.964363
			 0.367084 -0.039929  0.929330
			 0.506445  0.103506  0.856038
			 0.297189 -0.199068  0.933836
			 0.114647 -0.269130  0.956256
			 0.315072 -0.219573  0.923318
			-0.220294 -0.422818  0.879031
			-0.263384 -0.402620  0.876656
			-0.312544 -0.373972  0.873190
			-0.350095 -0.357593  0.865772
			 0.332116  0.310121 -0.890800
			 0.328046  0.290075 -0.899023
			 0.355699  0.295344 -0.886707
			 0.382595  0.294432 -0.875746
			 0.450934  0.448230 -0.771848
			 0.388782  0.334969 -0.858280
			 0.623459  0.475442 -0.620688
			 0.465417  0.475998 -0.746199
			 0.291698  0.356108 -0.887749
			 0.562262  0.222849  0.796366
			 0.771256  0.429850  0.469460
			 0.829368  0.428318  0.358737
			 0.873199  0.469974  0.129024
			 0.868959  0.474502 -0.140562
			 0.811582  0.481714 -0.330586
			 0.674367  0.473446 -0.566636
			 0.583443  0.405380 -0.703748
			-0.395885  0.448332  0.801419
			-0.303277  0.489697  0.817447
			-0.120965  0.616003  0.778401
			-0.361142  0.496798  0.789157
			-0.338388  0.448876  0.827045
			-0.342814  0.468232  0.814394
			 0.379176  0.832547  0.403845
			 0.098299  0.751626  0.652223
			 0.569207  0.820105 -0.058571
			 0.553826  0.645259 -0.526229
			 0.569157  0.717221 -0.402062
			 0.453635  0.483117 -0.748875
			 0.477222  0.525465 -0.704376
			-0.436653  0.424907  0.792962
			-0.496636  0.338440  0.799257
			-0.527738  0.222242  0.819818
			-0.509758  0.139903  0.848866
			-0.516946  0.084423  0.851845
			-0.496706  0.110504  0.860856
			-0.563599  0.083765  0.821790
			-0.643969  0.014101  0.764922
			-0.652829  0.062008  0.754963
			-0.653035  0.022039  0.757007
			-0.956877 -0.169354  0.236019
			-0.919432 -0.257271  0.297416
			-0.722308 -0.084069  0.686443
			-0.788135 -0.013078  0.615363
			-0.881318  0.040221  0.470808
			-0.993755  0.092131 -0.062950
			-0.629444  0.045055  0.775739
			-0.661717 -0.357744  0.658901
			-0.640311 -0.254907  0.724586
			-0.614305 -0.163540  0.771935
			-0.577354  0.042516  0.815386
			-0.575450 -0.021546  0.817553
			-0.599424 -0.096622  0.794578
			-0.717702 -0.469439  0.514325
			-0.935990 -0.351436 -0.020363
			-0.913219 -0.372323  0.165553
			-0.750699 -0.561212 -0.348556
			-0.732240 -0.660386  0.166479
			-0.351212 -0.344459  0.870631
			-0.344095 -0.364641  0.865237
			-0.391098 -0.314021  0.865120
			-0.412297 -0.275251  0.868475
			-0.469615 -0.257969  0.844342
			-0.503239 -0.230298  0.832895
			-0.546455 -0.214381  0.809585
			-0.573248 -0.200313  0.794520
			-0.579338 -0.171672  0.796804
			-0.616494 -0.127191  0.777018
			-0.678297 -0.062052  0.732163
			 0.105948 -0.302630  0.947201
			-0.022198 -0.351052  0.936093
			-0.054751 -0.368282  0.928101
			-0.040792 -0.370478  0.927945
			-0.069783 -0.342542  0.936908
			-0.130122 -0.333367  0.933774
			-0.153036 -0.353663  0.922769
			-0.144868 -0.343173  0.928033
			-0.207825 -0.381806  0.900574
			-0.172032 -0.392264  0.903623
			-0.177881 -0.357000  0.917011
			-0.185220 -0.361718  0.913703
			-0.171391 -0.370356  0.912941
			 0.376704 -0.005861  0.926315
			 0.538884  0.180325  0.822853
			 0.580921 -0.109956  0.806499
			 0.598437 -0.025770  0.800755
			 0.343116 -0.246189  0.906456
			 0.587583 -0.146541  0.795783
			-0.253523 -0.407433  0.877340
			-0.264335 -0.408768  0.873519
			-0.299888 -0.388467  0.871298
			 0.224001  0.251109 -0.941683
			 0.255085  0.236271 -0.937607
			 0.252099  0.224150 -0.941384
			 0.283905  0.203136 -0.937088
			 0.331041  0.242314 -0.911974
			 0.377047  0.348308 -0.858206
			 0.451202  0.405356 -0.795049
			 0.304366  0.383794 -0.871816
			 0.214210  0.332338 -0.918513
			 0.189392  0.284291 -0.939845
			 0.692714  0.313626  0.649451
			 0.801587  0.372853  0.467375
			 0.858338  0.475808  0.191998
			 0.879394  0.466027 -0.097386
			 0.832122  0.474206 -0.287579
			 0.736927  0.481191 -0.474756
			 0.577472  0.484359 -0.657208
			 0.455367  0.435889 -0.776300
			 0.321258  0.373619 -0.870174
			 0.359023  0.347486 -0.866231
			-0.293356  0.426237  0.855724
			-0.210599  0.482285  0.850323
			 0.270200  0.817093  0.509266
			 0.031432  0.592961  0.804617
			-0.379344  0.441083  0.813353
			-0.325654  0.410050  0.851944
			-0.319612  0.385588  0.865546
			-0.326765  0.418896  0.847202
			 0.566785  0.821985 -0.055636
			 0.420802  0.898240  0.126847
			 0.550576  0.683318 -0.479523
			 0.473042  0.513737 -0.715755
			 0.490444  0.585438 -0.645544
			 0.406386  0.407424 -0.817836
			-0.436396  0.357191  0.825817
			-0.427856  0.299596  0.852749
			-0.415914  0.241784  0.876673
			-0.475724  0.214849  0.852951
			-0.588598  0.148800  0.794614
			-0.597530  0.165224  0.784640
			-0.623690  0.117535  0.772785
			-0.834643 -0.047969 -0.548699
			-0.934609 -0.230942 -0.270504
			-0.797158  0.034720  0.602772
			-0.908071  0.175695  0.380182
			-0.959883  0.271913  0.068472
			-0.959586  0.272407 -0.070632
			-0.458075  0.187928 -0.868821
			-0.581074  0.469040 -0.665098
			-0.563495  0.135148  0.814990
			-0.624744 -0.624087  0.469266
			-0.632645 -0.421719  0.649549
			-0.628950 -0.274144  0.727508
			-0.618336 -0.180994  0.764789
			-0.524606  0.142394  0.839352
			-0.518084  0.052518  0.853716
			-0.591776 -0.086520  0.801446
			-0.556006 -0.037852  0.830316
			-0.617126 -0.147752  0.772868
			-0.629355 -0.765832  0.131962
			-0.591978 -0.299350 -0.748300
			-0.842370 -0.437515 -0.314632
			-0.604877 -0.337823 -0.721110
			-0.471731 -0.794036 -0.383376
			-0.261681 -0.260241 -0.929407
			 0.067750 -0.478621 -0.875404
			-0.351901 -0.311332  0.882745
			-0.289136 -0.359448  0.887242
			-0.359530 -0.257723  0.896837
			-0.420333 -0.213557  0.881881
			-0.461633 -0.241184  0.853654
			-0.498797 -0.198290  0.843731
			-0.525947 -0.158719  0.835577
			-0.566465 -0.146862  0.810894
			-0.593602 -0.137738  0.792884
			-0.613721 -0.120971  0.780200
			-0.628740 -0.103844  0.770651
			-0.745631  0.161754  0.646429
			-0.647788 -0.074216  0.758197
			-0.672667  0.015137  0.739790
			 0.350363 -0.289635  0.890706
			 0.135264 -0.340513  0.930459
			 0.091656 -0.373607  0.923048
			 0.009809 -0.373178  0.927708
			 0.050363 -0.387161  0.920636
			 0.067920 -0.388872  0.918785
			 0.011847 -0.356173  0.934345
			-0.048842 -0.323883  0.944836
			-0.114333 -0.325765  0.938512
			-0.166371 -0.338347  0.926198
			-0.162653 -0.371218  0.914189
			-0.142274 -0.346919  0.927041
			-0.139649 -0.352162  0.925462
			-0.171468 -0.338153  0.925338
			-0.154826 -0.356927  0.921212
			-0.187489 -0.336189  0.922943
			-0.234912 -0.321561  0.917287
			-0.155045 -0.365177  0.917936
			-0.195189 -0.337076  0.921022
			-0.165041 -0.346457  0.923433
			-0.143664 -0.338500  0.929935
			 0.757176  0.153061  0.635025
			 0.754546  0.034194  0.655356
			 0.571065 -0.223046  0.790023
			 0.757336 -0.095089  0.646066
			 0.826621  0.028191  0.562052
			 0.180682  0.256447 -0.949520
			 0.184115  0.235009 -0.954396
			 0.198680  0.205921 -0.958187
			 0.218524  0.169846 -0.960937
			 0.247956  0.124879 -0.960689
			 0.292475  0.154835 -0.943655
			 0.334819  0.155668 -0.929335
			 0.344353  0.256091 -0.903238
			 0.359695  0.328052 -0.873499
			 0.222074  0.340164 -0.913768
			 0.162399  0.315798 -0.934825
			 0.159383  0.299773 -0.940603
			 0.165762  0.281765 -0.945056
			 0.174720  0.269054 -0.947145
			 0.862714  0.338256  0.375908
			 0.908511  0.401332  0.116363
			 0.932287  0.351996  0.083303
			 0.908062  0.410508 -0.083109
			 0.843247  0.492228 -0.215974
			 0.729941  0.493181 -0.473242
			 0.586927  0.471759 -0.657997
			 0.436757  0.473293 -0.765008
			 0.324962  0.444011 -0.835017
			 0.248729  0.385242 -0.888663
			 0.194587  0.332025 -0.922982
			-0.190254  0.505675  0.841484
			-0.253418  0.374116  0.892085
			-0.090910  0.579079  0.810187
			 0.174647  0.746862  0.641635
			 0.523489  0.840598 -0.139121
			 0.414144  0.861611  0.293446
			-0.359862  0.373944  0.854790
			-0.306445  0.349999  0.885207
			 0.527591  0.784738 -0.325322
			 0.471057  0.501960 -0.725356
			 0.556808  0.581771 -0.592880
			 0.432288  0.467260 -0.771230
			 0.348282  0.306740 -0.885782
			 0.406124  0.354883 -0.842094
			-0.366801  0.320186  0.873463
			-0.352088  0.297301  0.887494
			-0.392701  0.271130  0.878791
			-0.500110  0.228458  0.835282
			-0.534337  0.198401  0.821658
			-0.284819  0.045606 -0.957496
			-0.399170 -0.090586 -0.912391
			-0.812622  0.472690  0.340896
			-0.764459  0.572376 -0.296627
			-0.729085  0.383607 -0.566817
			 0.005849  0.353717 -0.935334
			 0.017212  0.149067 -0.988677
			-0.102287  0.483560 -0.869314
			-0.399468  0.364972 -0.840964
			-0.505573  0.188851  0.841862
			-0.474285  0.189786  0.859672
			-0.483442  0.193979  0.853613
			-0.229947 -0.936072 -0.266257
			-0.482212 -0.745920  0.459430
			-0.457005 -0.755319  0.469723
			-0.624919 -0.404737  0.667581
			-0.678752 -0.553826  0.482258
			-0.612851 -0.255723  0.747676
			-0.394694  0.317382  0.862256
			-0.474398  0.299903  0.827650
			-0.499454  0.253302  0.828483
			-0.435955  0.203142  0.876742
			-0.538528 -0.004910  0.842593
			-0.517864  0.055266  0.853676
			-0.476686  0.137793  0.868207
			-0.605433 -0.163017  0.779023
			-0.579130 -0.081206  0.811181
			-0.595503 -0.127265  0.793208
			-0.565384 -0.050021  0.823310
			-0.206380 -0.849363 -0.485788
			-0.095179 -0.097875 -0.990637
			-0.107685 -0.115849 -0.987412
			-0.264874 -0.209491 -0.941252
			 0.003186 -0.053823 -0.998545
			 0.196171 -0.053256 -0.979122
			 0.454405 -0.116319 -0.883168
			 0.033803 -0.647555 -0.761269
			 0.321391 -0.458937 -0.828302
			-0.295813 -0.288210  0.910731
			-0.315094 -0.233790  0.919814
			-0.363505 -0.206443  0.908430
			-0.388935 -0.192151  0.901004
			-0.421964 -0.180655  0.888431
			-0.458384 -0.173891  0.871577
			-0.489571 -0.162823  0.856627
			-0.531022 -0.125121  0.838070
			-0.580332 -0.131189  0.803744
			-0.595606 -0.129753  0.792728
			-0.603317 -0.117806  0.788752
			-0.621339 -0.109650  0.775832
			-0.627228 -0.101171  0.772236
			-0.723645  0.224757  0.652551
			-0.774799  0.484197  0.406497
			-0.810469  0.572854  0.122386
			-0.772180  0.520863  0.363925
			-0.641819 -0.066670  0.763953
			-0.683000  0.033009  0.729672
			 0.311287 -0.345941  0.885113
			 0.551480 -0.271190  0.788876
			 0.161589 -0.368297  0.915558
			 0.335601 -0.338248  0.879182
			 0.186620 -0.379465  0.906189
			 0.163124 -0.397060  0.903180
			 0.216095 -0.395540  0.892665
			 0.062333 -0.354562  0.932952
			 0.000624 -0.328667  0.944446
			-0.116411 -0.374701  0.919809
			-0.188695 -0.382130  0.904639
			-0.130591 -0.492521  0.860447
			-0.109814 -0.410195  0.905362
			-0.171147 -0.328137  0.928997
			-0.072874 -0.401525  0.912944
			-0.126192 -0.354640  0.926448
			-0.135681 -0.335768  0.932122
			-0.152575 -0.317931  0.935757
			-0.199291 -0.308893  0.929983
			-0.237518 -0.290851  0.926818
			-0.199858 -0.327095  0.923616
			-0.194277 -0.322016  0.926586
			-0.183404 -0.333241  0.924831
			-0.148069 -0.322875  0.934787
			-0.121863 -0.320146  0.939498
			-0.119737 -0.308240  0.943743
			 0.885880  0.239363  0.397394
			 0.903925  0.180954  0.387526
			 0.755236 -0.163184  0.634814
			 0.886750  0.071509  0.456684
			 0.912854  0.110768  0.392974
			 0.946510  0.247821  0.206647
			 0.175477  0.268862 -0.947059
			 0.184402  0.266681 -0.945979
			 0.182199  0.255806 -0.949403
			 0.179487  0.227948 -0.956987
			 0.193874  0.167963 -0.966541
			 0.231189  0.127473 -0.964522
			 0.255186  0.113037 -0.960262
			 0.248443  0.088086 -0.964633
			 0.280191  0.090090 -0.955707
			 0.345496  0.210340 -0.914543
			 0.321219  0.067848 -0.944572
			 0.359765  0.084603 -0.929199
			 0.292989  0.237264 -0.926209
			 0.144028  0.305491 -0.941239
			 0.146511  0.293896 -0.944542
			 0.163673  0.297024 -0.940738
			 0.172987  0.293105 -0.940301
			 0.181852  0.273559 -0.944508
			 0.934844  0.333856  0.120856
			 0.897922  0.439889 -0.015302
			 0.833783  0.500107 -0.233879
			 0.699289  0.534201 -0.474999
			 0.535632  0.469987 -0.701577
			 0.390460  0.366300 -0.844610
			 0.465091  0.409493 -0.784860
			 0.291108  0.361317 -0.885837
			 0.262938  0.415920 -0.870560
			 0.161969  0.346207 -0.924071
			 0.199853  0.370188 -0.907205
			 0.138609  0.325615 -0.935287
			 0.044569  0.731705  0.680163
			 0.085242  0.703750  0.705316
			-0.059779  0.524882  0.849074
			-0.165858  0.459356  0.872630
			-0.282071  0.313541  0.906713
			-0.213998  0.372527  0.903011
			 0.619014  0.626965 -0.473007
			 0.568118  0.790695 -0.228129
			 0.293530  0.809823  0.507964
			 0.510692  0.859336 -0.027115
			-0.328296  0.321781  0.888076
			-0.306845  0.300069  0.903219
			 0.499929  0.353927 -0.790447
			 0.589064  0.420066 -0.690325
			 0.341578  0.253118 -0.905127
			 0.404156  0.243023 -0.881815
			-0.331237  0.288213  0.898451
			-0.445391  0.249407  0.859897
			-0.373196  0.273602  0.886491
			-0.423471  0.226242  0.877204
			 0.040084  0.055145 -0.997673
			 0.060400 -0.026774 -0.997815
			-0.415604  0.897529 -0.147361
			-0.287927  0.819050 -0.496240
			-0.054975  0.459126 -0.886668
			 0.237826  0.289162 -0.927267
			 0.226131  0.150868 -0.962343
			-0.371123  0.225091  0.900889
			-0.386508  0.255672  0.886139
			-0.310130  0.356446  0.881343
			-0.136861 -0.990210 -0.027458
			 0.379915 -0.661427 -0.646667
			 0.092979 -0.948986 -0.301299
			-0.275624 -0.961049  0.020399
			-0.685460 -0.679917  0.260493
			-0.481211 -0.730444  0.484651
			-0.527992 -0.419867  0.738198
			-0.217479 -0.928299 -0.301603
			-0.581507 -0.293229  0.758858
			-0.604447 -0.223294  0.764711
			-0.281855  0.556736  0.781411
			 0.065279  0.811259  0.581032
			-0.122089  0.565757  0.815484
			-0.289123  0.502888  0.814562
			-0.283555  0.597106  0.750374
			-0.372311  0.700523  0.608812
			-0.481057  0.428322  0.764934
			-0.390061  0.649070  0.653116
			-0.317804  0.493727  0.809465
			-0.294237  0.471252  0.831472
			-0.353266  0.432543  0.829523
			-0.449135  0.374395  0.811238
			-0.521399  0.164188  0.837368
			-0.537382  0.020015  0.843102
			-0.570939 -0.031738  0.820379
			-0.451590  0.348376  0.821401
			-0.598642 -0.185934  0.779138
			-0.593109 -0.103687  0.798418
			-0.585850 -0.073337  0.807095
			-0.598191 -0.136774  0.789595
			 0.229041  0.006514 -0.973395
			 0.131025 -0.021429 -0.991147
			 0.163478  0.028919 -0.986123
			 0.239874  0.074205 -0.967964
			 0.399454  0.053109 -0.915213
			 0.323143  0.092135 -0.941855
			 0.479869  0.032189 -0.876749
			 0.557746 -0.001390 -0.830011
			 0.523086 -0.287376 -0.802369
			 0.583122 -0.092963 -0.807048
			-0.251998 -0.253468  0.933944
			-0.283125 -0.215352  0.934593
			-0.327920 -0.190662  0.925266
			-0.379883 -0.179939  0.907365
			-0.417708 -0.170936  0.892357
			-0.450531 -0.168574  0.876701
			-0.471328 -0.164871  0.866411
			-0.465872 -0.159003  0.870449
			-0.482941 -0.136933  0.864880
			-0.482262 -0.107854  0.869363
			-0.505488 -0.080889  0.859034
			-0.552925 -0.069405  0.830335
			-0.576524 -0.099685  0.810977
			-0.590647 -0.118003  0.798255
			-0.609826 -0.108758  0.785038
			-0.594395 -0.096005  0.798422
			-0.603420 -0.100366  0.791082
			-0.617973 -0.106607  0.778938
			-0.626138 -0.092379  0.774220
			-0.697270  0.331970  0.635304
			-0.582895  0.809876  0.065835
			-0.578857  0.784714 -0.221694
			-0.383025  0.811283 -0.441715
			-0.310504  0.693609 -0.649995
			-0.674565  0.045653  0.736802
			-0.637678 -0.041672  0.769175
			-0.737828  0.269877  0.618690
			-0.748896  0.317836  0.581493
			 0.540897 -0.277581  0.793964
			 0.738664 -0.179651  0.649693
			 0.365907 -0.339156  0.866652
			 0.352963 -0.344859  0.869764
			 0.291731 -0.436521  0.851083
			 0.293495 -0.479536  0.826986
			 0.269110 -0.482938  0.833277
			 0.168635 -0.405701  0.898315
			 0.368090 -0.352347  0.860443