<?xml version="1.0"?>
<VTKFile type="PolyData" version="0.1" byte_order="LittleEndian" compressor="vtkZLibDataCompressor">
	<PolyData>
		<Piece NumberOfPoints="6918" NumberOfVerts="0" NumberOfLines="0" NumberOfStrips="0" NumberOfPolys="13832">
		<PointData Normals="Normals">
		<DataArray type="Float32" Name="Normals" NumberOfComponents="3" format="ascii">
			 0.678737 -0.652380  0.337218
			 0.649044 -0.756215  0.082952
			 0.806685 -0.497381  0.319175
			 0.398266 -0.899316  0.180599
			 0.581024 -0.701631  0.412463
			 0.732752 -0.423007  0.533047
			 0.678434 -0.719592 -0.148038
			 0.872590 -0.488329  0.011010
			 0.309958 -0.943009 -0.121083
			 0.252773 -0.883801 -0.393703
			 0.828489 -0.314063  0.463649
			 0.909386 -0.367215  0.195374
			 0.359158 -0.866421  0.346873
			 0.147185 -0.985224  0.087585
			 0.032757 -0.983108 -0.180070
			 0.570008 -0.633847  0.522809
			 0.606869 -0.484740  0.629871
			 0.765238 -0.238708  0.597854
			 0.682487 -0.335489  0.649353
			 0.575335 -0.634420 -0.516237
			 0.856529 -0.344318 -0.384452
			 0.127210 -0.845095 -0.519261
			 0.941010 -0.303288 -0.150054
			 0.033294 -0.844934 -0.533833
			-0.197257 -0.555796 -0.807577
			 0.926745 -0.271196  0.259994
			 0.833650 -0.174459  0.524015
			 0.130805 -0.980409  0.147268
			 0.442843 -0.703597  0.555735
			 0.289388 -0.874810  0.388539
			-0.102448 -0.978407 -0.179511
			-0.214450 -0.867271 -0.449279
			-0.128889 -0.782488 -0.609180
			 0.499311 -0.554149  0.666038
			 0.766538 -0.070285  0.638341
			 0.740175 -0.109957  0.663363
			 0.573553 -0.381160  0.725089
			 0.686635 -0.203313  0.697995
			 0.461788 -0.365652 -0.808115
			 0.034057 -0.574666 -0.817679
			 0.451166 -0.272943 -0.849677
			 0.782447 -0.267717 -0.562231
			 0.974257 -0.225424  0.002820
			 0.944155 -0.193818 -0.266468
			-0.009115 -0.349009 -0.937075
			-0.287460 -0.607743 -0.740280
			-0.025497 -0.367560 -0.929650
			-0.334174 -0.479895 -0.811189
			-0.245503 -0.455727 -0.855594
			 0.939368 -0.157687  0.304505
			 0.869018 -0.058209  0.491345
			 0.778854  0.016819  0.626980
			 0.183138 -0.941326  0.283488
			-0.000873 -0.999623 -0.027443
			 0.336969 -0.773314  0.537064
			-0.203738 -0.920289 -0.334004
			-0.298474 -0.737118 -0.606276
			 0.351675 -0.684746  0.638316
			 0.437358 -0.514317  0.737696
			 0.725818  0.093790  0.681463
			 0.692553 -0.006705  0.721336
			 0.601986 -0.175775  0.778920
			 0.477448 -0.326498  0.815747
			 0.399025 -0.333727 -0.854052
			 0.732520 -0.293655 -0.614151
			 0.995896 -0.084024  0.033632
			 0.989304 -0.071427 -0.127184
			 0.996443  0.024013  0.080780
			 0.920521 -0.193321 -0.339510
			 0.051622 -0.448273 -0.892405
			-0.405112 -0.501230 -0.764626
			-0.387373 -0.441523 -0.809321
			-0.360567 -0.465424 -0.808315
			-0.169717 -0.488662 -0.855807
			-0.300502 -0.480002 -0.824195
			 0.955541  0.027901  0.293536
			 0.851641  0.101881  0.514128
			 0.779297  0.159010  0.606145
			 0.253587 -0.866125  0.430723
			 0.103464 -0.984959  0.138388
			-0.131264 -0.974470 -0.182148
			-0.304813 -0.730055 -0.611644
			-0.401589 -0.813528 -0.420593
			-0.367439 -0.748928 -0.551448
			 0.229904 -0.730957  0.642531
			 0.219321 -0.822190  0.525263
			 0.322386 -0.532384  0.782710
			 0.677751  0.121736  0.725144
			 0.684670  0.216113  0.696076
			 0.700278  0.210555  0.682112
			 0.600614 -0.038503  0.798612
			 0.313977 -0.388214  0.866434
			 0.499317 -0.167648  0.850045
			 0.433627 -0.390078 -0.812285
			 0.711072 -0.300091 -0.635863
			 0.996693  0.066940  0.046064
			 0.955861  0.168470  0.240724
			 0.912846  0.151291  0.379241
			 0.980292 -0.093899 -0.173810
			 0.879206 -0.159750 -0.448862
			 0.231484 -0.449678 -0.862673
			-0.013256 -0.530124 -0.847816
			-0.477413 -0.620301 -0.622337
			-0.513410 -0.538835 -0.667882
			-0.475038 -0.440315 -0.761880
			-0.433121 -0.454694 -0.778241
			-0.359545 -0.501881 -0.786665
			-0.240942 -0.531889 -0.811814
			 0.868299  0.203248  0.452490
			 0.766122  0.210101  0.607383
			 0.132429 -0.935290  0.328170
			-0.017974 -0.999506  0.025775
			-0.245253 -0.948728 -0.199413
			-0.491426 -0.801811 -0.339999
			-0.518328 -0.648097 -0.557949
			 0.034374 -0.885560  0.463251
			 0.033717 -0.793095  0.608164
			 0.161165 -0.628960  0.760550
			 0.112078 -0.518697  0.847580
			 0.613555  0.130227  0.778839
			 0.637734  0.247269  0.729488
			 0.647903  0.296140  0.701799
			 0.704696  0.262108  0.659320
			 0.513256  0.083547  0.854159
			 0.396123 -0.107424  0.911892
			 0.176439 -0.246906  0.952841
			 0.065796 -0.353948  0.932948
			 0.510819 -0.360823 -0.780301
			 0.728800 -0.284980 -0.622605
			 0.923272  0.243425  0.297175
			 0.989165  0.035865 -0.142363
			 0.977795  0.116181  0.174409
			 0.961997 -0.101870 -0.253346
			 0.408736 -0.493448 -0.767752
			 0.100701 -0.703650 -0.703375
			-0.155911 -0.633920 -0.757520
			-0.539649 -0.496614 -0.679818
			-0.491885 -0.445353 -0.748137
			-0.403476 -0.542993 -0.736455
			-0.458112 -0.496158 -0.737537
			-0.306512 -0.614376 -0.727043
			 0.825014  0.249296  0.507152
			-0.028482 -0.984581  0.172595
			-0.138719 -0.979148  0.148411
			-0.376856 -0.922474 -0.083790
			-0.475575 -0.878030  0.053765
			-0.579595 -0.645523 -0.497363
			-0.579875 -0.776890 -0.245329
			-0.202702 -0.864170  0.460567
			-0.244694 -0.922313  0.299105
			-0.048599 -0.693089  0.719212
			-0.130110 -0.608672  0.782681
			-0.042783 -0.438875  0.897529
			 0.545285  0.227046  0.806917
			 0.569066  0.288830  0.769897
			 0.703875  0.329221  0.629423
			 0.692550  0.323305  0.644863
			 0.574663  0.312154  0.756520
			 0.625777  0.303606  0.718489
			 0.755329  0.298381  0.583479
			 0.339281  0.119084  0.933117
			 0.412928  0.193504  0.889970
			 0.174969 -0.022576  0.984315
			-0.031056 -0.120944  0.992173
			-0.104172 -0.224033  0.968998
			 0.895754 -0.243492 -0.371937
			 0.697313 -0.373664 -0.611662
			 0.823097  0.314820  0.472653
			 0.871747  0.291766  0.393612
			 0.994293 -0.090464 -0.056542
			 0.998448 -0.054114 -0.013127
			 0.891037  0.228819  0.392040
			 0.967873  0.126171  0.217492
			 0.635798 -0.455598 -0.623050
			 0.442789 -0.645615 -0.622189
			 0.250456 -0.754441 -0.606705
			-0.148931 -0.791484 -0.592767
			 0.095390 -0.823450 -0.559313
			-0.603268 -0.595399 -0.530629
			-0.569834 -0.497925 -0.653728
			-0.517358 -0.479468 -0.708838
			-0.344298 -0.680956 -0.646341
			-0.401611 -0.612307 -0.681020
			-0.436399 -0.576500 -0.690800
			-0.422549 -0.879597  0.218543
			-0.519265 -0.854579  0.007683
			-0.620132 -0.686859 -0.379027
			-0.228198 -0.787536  0.572461
			-0.330431 -0.801571  0.498296
			-0.164661 -0.399479  0.901834
			-0.248085 -0.608043  0.754147
			 0.496034  0.285205  0.820127
			 0.770183  0.329164  0.546324
			 0.777366  0.326138  0.537899
			 0.783305  0.293956  0.547743
			 0.670275  0.291326  0.682539
			 0.446907  0.336697  0.828800
			 0.536122  0.313141  0.783911
			 0.588318  0.295417  0.752736
			 0.086692  0.059440  0.994460
			 0.173937  0.064718  0.982628
			 0.322550  0.202402  0.924659
			-0.141908 -0.055349  0.988331
			-0.206869 -0.183776  0.960954
			 0.833813 -0.247277 -0.493568
			 0.951119 -0.148314 -0.270879
			 0.834262 -0.240322 -0.496238
			 0.998036  0.019588 -0.059494
			 0.938864  0.202187  0.278667
			 0.871374  0.255271  0.418980
			 0.995589  0.093713  0.004561
			 0.709140 -0.462180 -0.532456
			 0.547997 -0.632291 -0.547638
			 0.321634 -0.757325 -0.568341
			 0.030932 -0.905617 -0.422968
			-0.259323 -0.833786 -0.487393
			-0.098110 -0.940201 -0.326186
			 0.250455 -0.861114 -0.442443
			-0.586144 -0.548428 -0.596374
			-0.490159 -0.582036 -0.648828
			-0.313433 -0.769469 -0.556486
			-0.349102 -0.719990 -0.599785
			-0.361467 -0.715145 -0.598255
			-0.433389 -0.834053  0.341364
			-0.606471 -0.791569 -0.074915
			-0.629973 -0.624779 -0.461286
			-0.687224 -0.699654 -0.195466
			-0.261600 -0.360102  0.895484
			-0.414284 -0.676936  0.608381
			-0.387751 -0.473347  0.790943
			 0.342630  0.291602  0.893069
			 0.809758  0.256702  0.527633
			 0.698881  0.248981  0.670503
			 0.570183  0.252984  0.781595
			 0.245905  0.350767  0.903600
			 0.248207  0.355130  0.901264
			 0.386614  0.329850  0.861237
			 0.475052  0.295636  0.828810
			-0.115044 -0.004716  0.993349
			 0.060771  0.090730  0.994020
			 0.092518  0.198283  0.975769
			-0.262478 -0.089651  0.960764
			-0.237795 -0.002440  0.971312
			-0.330588 -0.240963  0.912496
			 0.942297 -0.055569 -0.330133
			 0.974248 -0.006559 -0.225385
			 0.978541 -0.032334 -0.203499
			 0.876293 -0.268969 -0.399708
			 0.987275  0.143239  0.069073
			 0.946923  0.232824  0.221652
			 0.898248  0.261463  0.353253
			 0.643737 -0.552316 -0.529669
			 0.779576 -0.394148 -0.486733
			 0.468049 -0.714243 -0.520372
			 0.135653 -0.937501 -0.320454
			 0.032543 -0.958477 -0.283307
			-0.211127 -0.893965 -0.395287
			 0.025356 -0.976283 -0.215010
			-0.029562 -0.991908 -0.123466
			-0.118448 -0.962203 -0.245224
			 0.268064 -0.912959 -0.307648
			 0.460497 -0.789201 -0.406330
			-0.559064 -0.623030 -0.547065
			-0.431795 -0.701446 -0.567034
			-0.229455 -0.875677 -0.424899
			-0.259160 -0.836236 -0.483265
			-0.286678 -0.827114 -0.483424
			-0.225179 -0.864761 -0.448869
			-0.595158 -0.752124  0.283014
			-0.668412 -0.687664 -0.283450
			-0.720458 -0.654989  0.227879
			-0.735028 -0.668503  0.113306
			-0.563001 -0.596087  0.572460
			-0.534149 -0.446839  0.717649
			 0.103343  0.250409  0.962609
			 0.730619  0.242677  0.638204
			 0.889004  0.247156  0.385467
			 0.783369  0.249104  0.569456
			 0.656059  0.230778  0.718560
			 0.612707  0.236484  0.754099
			 0.398313  0.283932  0.872198
			 0.524263  0.239423  0.817206
			 0.427995  0.247453  0.869245
			-0.001267  0.279158  0.960244
			 0.037520  0.342944  0.938606
			 0.199355  0.334318  0.921135
			 0.033446  0.328702  0.943841
			 0.270121  0.290136  0.918072
			 0.379217  0.277542  0.882703
			-0.132312  0.089574  0.987153
			-0.246068  0.066883  0.966942
			-0.153308  0.160446  0.975066
			-0.376621 -0.177649  0.909174
			-0.323507 -0.041376  0.945321
			-0.294434  0.046304  0.954549
			 0.991891  0.124533 -0.025363
			 0.991560  0.129351  0.008722
			 0.985864  0.163226  0.037806
			 0.991153 -0.052247 -0.122005
			 0.927888 -0.167190 -0.333273
			 0.864282 -0.214295 -0.455076
			 0.957585  0.236654  0.164395
			 0.641636 -0.599906 -0.477929
			 0.769702 -0.461704 -0.440895
			 0.836619 -0.259047 -0.482662
			 0.117583 -0.966505 -0.228127
			 0.090798 -0.991839 -0.089501
			 0.035934 -0.999044 -0.024900
			-0.027984 -0.999435 -0.018635
			-0.076386 -0.987467 -0.138110
			-0.069529 -0.996785 -0.039827
			-0.155716 -0.944410 -0.289555
			 0.236421 -0.957854 -0.163161
			 0.430392 -0.866106 -0.254211
			 0.641952 -0.682877 -0.348679
			-0.498314 -0.741640 -0.449058
			-0.346724 -0.818638 -0.457836
			-0.120781 -0.937480 -0.326409
			-0.217206 -0.892319 -0.395712
			-0.130540 -0.941145 -0.311778
			-0.766403 -0.630354  0.123616
			-0.716823 -0.679749  0.155263
			-0.609189 -0.775501 -0.165794
			-0.687947 -0.566572  0.453568
			-0.509794 -0.329156  0.794837
			 0.683895  0.250354  0.685281
			 0.955674  0.225895  0.188836
			 0.910487  0.232355  0.342089
			 0.816017  0.234689  0.528241
			 0.708706  0.245548  0.661394
			 0.607504  0.252186  0.753220
			 0.268007  0.292691  0.917880
			 0.163630  0.268491  0.949283
			 0.288188  0.263640  0.920566
			 0.546062  0.268336  0.793607
			 0.444709  0.261916  0.856525
			 0.329347  0.268522  0.905222
			-0.154364  0.247524  0.956506
			-0.132548  0.286123  0.948981
			 0.042808  0.289200  0.956311
			-0.124691  0.259777  0.957585
			 0.119345  0.269664  0.955530
			-0.239306  0.166636  0.956538
			-0.661010 -0.405347  0.631474
			-0.454011 -0.186507  0.871258
			-0.412507 -0.094466  0.906043
			-0.292938  0.054079  0.954601
			 0.987494  0.157469 -0.007682
			 0.988160  0.017856 -0.152387
			 0.956135 -0.000362 -0.292928
			 0.928153 -0.028726 -0.371090
			 0.882851 -0.099031 -0.459094
			 0.980922  0.194382 -0.002770
			 0.758097 -0.523641 -0.388702
			 0.821394 -0.326874 -0.467403
			 0.826015 -0.174656 -0.535906
			 0.845081 -0.105529 -0.524121
			 0.186193 -0.979337 -0.078943
			 0.130561 -0.990076 -0.051999
			 0.048672 -0.998668  0.017119
			-0.060273 -0.998145  0.008547
			-0.067136 -0.976794 -0.203388
			-0.110210 -0.991191 -0.073448
			-0.068151 -0.985498 -0.155403
			-0.097428 -0.995038 -0.020172
			 0.284766 -0.950071 -0.127563
			 0.551484 -0.790401 -0.266705
			 0.410289 -0.895430 -0.172824
			 0.666300 -0.666001 -0.335392
			-0.426476 -0.864245 -0.266832
			-0.227822 -0.914555 -0.334195
			-0.029982 -0.976292 -0.214370
			-0.046580 -0.966063 -0.254071
			-0.102579 -0.947440 -0.303042
			-0.642996 -0.476912  0.599258
			-0.686102 -0.698272  0.204157
			-0.605644 -0.793382  0.061160
			 0.617981  0.266614  0.739605
			 0.971549  0.236838  0.001110
			 0.958516  0.224969  0.175030
			 0.954334  0.213099  0.209371
			 0.842148  0.220458  0.492123
			 0.714082  0.236341  0.658961
			 0.761756  0.239481  0.601977
			 0.614036  0.247856  0.749351
			-0.035031  0.245029  0.968883
			 0.000608  0.237598  0.971363
			 0.127653  0.259957  0.957145
			 0.473485  0.265793  0.839741
			 0.233852  0.240370  0.942091
			-0.110956  0.242005  0.963910
			-0.210245  0.210108  0.954805
			-0.274406  0.143980  0.950774
			-0.260139  0.192306  0.946227
			-0.555608 -0.229076  0.799264
			-0.441875 -0.306844  0.842967
			-0.608317 -0.538277  0.583274
			-0.374144 -0.077367  0.924138
			-0.338816  0.040302  0.939989
			-0.319836  0.132843  0.938114
			 0.976668  0.124143 -0.175237
			 0.956109  0.073712 -0.283590
			 0.900929 -0.011720 -0.433809
			 0.977902  0.092258 -0.187607
			 0.979744  0.178731 -0.090319
			 0.647708 -0.679732 -0.344151
			 0.781434 -0.462917 -0.418412
			 0.788241 -0.290897 -0.542269
			 0.801260 -0.209370 -0.560488
			 0.775725 -0.128100 -0.617933
			 0.801458 -0.067060 -0.594279
			 0.816576  0.003026 -0.577230
			 0.237499 -0.970041 -0.051140
			 0.170779 -0.985248 -0.011024
			 0.017313 -0.999800 -0.010002
			-0.045426 -0.997604 -0.052177
			-0.151492 -0.988380 -0.012433
			-0.107707 -0.985112 -0.133992
			-0.195213 -0.976364 -0.092769
			-0.054043 -0.982620 -0.177588
			-0.025354 -0.978298 -0.205648
			-0.008226 -0.997536 -0.069670
			-0.064100 -0.997408 -0.032702
			 0.491246 -0.834459 -0.249711
			 0.346558 -0.928831 -0.131038
			-0.409138 -0.901039  0.143995
			-0.280694 -0.944986 -0.167967
			-0.129152 -0.973302 -0.189742
			-0.002951 -0.976355 -0.216153
			 0.023981 -0.973472 -0.227546
			 0.957885  0.213032 -0.192544
			 0.948492  0.270734 -0.164519
			 0.901306  0.252980 -0.351638
			 0.971393  0.191678 -0.140198
			 0.972104  0.163610  0.168063
			 0.890583  0.178547  0.418309
			 0.737150  0.236141  0.633126
			 0.718821  0.208457  0.663206
			 0.777516  0.187549  0.600245
			 0.662902  0.241305  0.708754
			 0.547584  0.234963  0.803084
			-0.187354  0.196183  0.962502
			-0.152239  0.210728  0.965617
			-0.060872  0.231440  0.970943
			-0.015780  0.247548  0.968747
			 0.405259  0.228571  0.885167
			 0.319252  0.229491  0.919463
			 0.047133  0.237290  0.970295
			 0.160725  0.229592  0.959924
			-0.315285  0.173610  0.932982
			-0.325547  0.174621  0.929261
			-0.440568 -0.697119  0.565620
			-0.409442 -0.524172  0.746727
			-0.428004 -0.168206  0.887986
			-0.402830 -0.005135  0.915261
			-0.381356  0.105177  0.918425
			-0.385558  0.158023  0.909051
			 0.950495  0.079090 -0.300505
			 0.864495  0.065766 -0.498320
			 0.937508  0.151669 -0.313169
			 0.554966 -0.777567 -0.295640
			 0.691615 -0.606343 -0.392451
			 0.748946 -0.424441 -0.508852
			 0.728907 -0.320179 -0.605128
			 0.753200 -0.190910 -0.629478
			 0.732952 -0.102165 -0.672566
			 0.762663 -0.063481 -0.643674
			 0.763425  0.024540 -0.645430
			 0.802533  0.118598 -0.584700
			 0.770084  0.085262 -0.632220
			 0.195608 -0.974980 -0.105604
			 0.103033 -0.986626 -0.126308
			 0.133650 -0.980617 -0.143277
			-0.096278 -0.995279 -0.012224
			-0.167665 -0.985546 -0.024245
			-0.220955 -0.973728 -0.055064
			-0.087260 -0.978227 -0.188304
			-0.143907 -0.977021 -0.157228
			-0.225255 -0.957320 -0.181105
			-0.258644 -0.961911 -0.088495
			-0.305715 -0.941244 -0.143521
			-0.022189 -0.968825 -0.246751
			 0.188480 -0.966649 -0.173394
			 0.054415 -0.992468 -0.109756
			 0.050756 -0.989499 -0.135336
			 0.006273 -0.996058 -0.088480
			 0.343574 -0.916088 -0.206737
			-0.351450 -0.896792  0.268787
			-0.251529 -0.967548 -0.024158
			-0.142770 -0.989751 -0.002999
			-0.036957 -0.994936 -0.093470
			 0.071242 -0.985648 -0.153044
			 0.050002 -0.963499 -0.263000
			 0.870896  0.169661 -0.461255
			 0.893795  0.230776 -0.384542
			 0.807993  0.208958 -0.550894
			 0.776010  0.199267 -0.598416
			 0.866379  0.184632 -0.464002
			 0.984894  0.142051 -0.099023
			 0.907300  0.147658 -0.393705
			 0.904181  0.148951  0.400338
			 0.976552  0.142135  0.161690
			 0.802911  0.162043  0.573651
			 0.639544  0.225852  0.734829
			 0.620481  0.202418  0.757648
			 0.683880  0.188736  0.704761
			 0.698337  0.170326  0.695208
			 0.546803  0.217171  0.808605
			 0.447346  0.223644  0.865947
			-0.231309  0.207920  0.950403
			-0.276747  0.173335  0.945180
			-0.319731  0.196204  0.926971
			-0.205575  0.192306  0.959561
			-0.204797  0.227524  0.951993
			-0.154424  0.257953  0.953737
			-0.251126  0.253418  0.934192
			-0.127042  0.240582  0.962279
			 0.339600  0.228188  0.912470
			-0.076547  0.235012  0.968974
			 0.358284  0.206696  0.910445
			-0.065276  0.200367  0.977544
			 0.149644  0.192839  0.969752
			-0.382111  0.168068  0.908705
			-0.394417  0.169182  0.903224
			-0.402424  0.143007  0.904215
			-0.347720  0.170247  0.922012
			-0.306354 -0.897012  0.318616
			-0.252165 -0.804674  0.537506
			-0.384811 -0.399108  0.832246
			-0.467386 -0.128233  0.874704
			-0.436133 -0.015197  0.899754
			-0.487960 -0.034006  0.872203
			-0.430140  0.112997  0.895663
			-0.442595  0.132795  0.886834
			 0.355373 -0.909475 -0.215791
			 0.686327 -0.553055 -0.472320
			 0.607955 -0.688398 -0.395600
			 0.414584 -0.862450 -0.290345
			 0.663429 -0.490746 -0.564828
			 0.703029 -0.342814 -0.623081
			 0.731262 -0.201148 -0.651763
			 0.740289 -0.154668 -0.654255
			 0.719089 -0.033061 -0.694131
			 0.741664 -0.035205 -0.669848
			 0.715155 -0.031545 -0.698253
			 0.708749 -0.026440 -0.704965
			 0.722735  0.027502 -0.690577
			 0.732866  0.124963 -0.668798
			 0.718051  0.094578 -0.689534
			 0.754729  0.168378 -0.634060
			-0.073340 -0.994742 -0.071484
			-0.166004 -0.982560 -0.083771
			-0.181132 -0.971123 -0.155277
			-0.142733 -0.959873 -0.241393
			-0.334795 -0.920587 -0.201079
			-0.266164 -0.926920 -0.264528
			-0.293363 -0.950659 -0.100927
			-0.423351 -0.891201 -0.162894
			-0.363758 -0.913008 -0.184653
			-0.392961 -0.900766 -0.184937
			-0.090957 -0.939854 -0.329244
			-0.012102 -0.929451 -0.368746
			 0.216288 -0.949471 -0.227429
			 0.179647 -0.953023 -0.243875
			 0.068647 -0.983743 -0.165946
			-0.107717 -0.984849  0.135905
			-0.019035 -0.999779  0.008896
			 0.029061 -0.998748  0.040714
			 0.102645 -0.949475 -0.296582
			 0.078694 -0.995917  0.044235
			 0.134665 -0.979196 -0.151788
			 0.704107  0.184804 -0.685624
			 0.678172  0.176921 -0.713289
			 0.761865  0.172440 -0.624360
			 0.803472  0.154257 -0.575011
			 0.944748  0.095678 -0.313522
			 0.993186  0.116518 -0.002141
			 0.832434  0.140282 -0.536073
			 0.833164  0.112473 -0.541469
			 0.950975  0.137846  0.276847
			 0.803612  0.145780  0.577023
			 0.853757  0.144799  0.500131
			 0.704850  0.152468  0.692777
			 0.605368  0.181018  0.775089
			 0.519654  0.202333  0.830073
			 0.612132  0.160884  0.774217
			 0.458499  0.219888  0.861062
			-0.419152  0.197055  0.886273
			-0.397029  0.222164  0.890512
			-0.316005  0.206557  0.925999
			-0.315484  0.247878  0.915984
			-0.401848  0.255300  0.879398
			-0.414689  0.250926  0.874683
			-0.290128  0.238078  0.926900
			-0.226477  0.222588  0.948242
			 0.490324  0.169650  0.854869
			 0.301999  0.154658  0.940679
			-0.027668  0.183625  0.982607
			-0.167470  0.181631  0.969001
			-0.285068  0.193168  0.938841
			 0.084052  0.172606  0.981398
			-0.427831  0.131561  0.894233
			-0.476978  0.166077  0.863082
			-0.466992  0.185203  0.864649
			-0.481702  0.088357  0.871870
			-0.105201 -0.963731  0.245266
			-0.112270 -0.954336  0.276836
			-0.264567 -0.713835  0.648416
			-0.412322 -0.352943  0.839894
			-0.516765 -0.162486  0.840567
			-0.523412  0.002512  0.852076
			-0.471066  0.061734  0.879935
			-0.494319  0.087705  0.864845
			-0.502113  0.106347  0.858238
			 0.533218 -0.709375 -0.460940
			 0.376691 -0.843640 -0.382591
			 0.559986 -0.623835 -0.545202
			 0.629229 -0.522384 -0.575487
			 0.715507 -0.314754 -0.623682
			 0.689618 -0.312654 -0.653203
			 0.753239 -0.179120 -0.632888
			 0.750111  0.014528 -0.661152
			 0.691329  0.041424 -0.721352
			 0.694522  0.065066 -0.716523
			 0.685116  0.036140 -0.727537
			 0.678257  0.080671 -0.730383
			 0.687147  0.160156 -0.708646
			 0.659748  0.141668 -0.738012
			 0.008652 -0.987169 -0.159444
			-0.090503 -0.981088 -0.171102
			-0.045485 -0.953262 -0.298702
			 0.081115 -0.928326 -0.362809
			-0.016866 -0.968501 -0.248437
			-0.146330 -0.972783 -0.179669
			-0.184446 -0.918810 -0.348953
			-0.387321 -0.878762 -0.278855
			-0.433653 -0.875279 -0.214081
			-0.305374 -0.877381 -0.370066
			-0.106484 -0.974630 -0.196867
			-0.203484 -0.965599 -0.161904
			-0.245509 -0.939034 -0.240706
			-0.333056 -0.922628 -0.194502
			-0.347324 -0.892105 -0.288988
			-0.439688 -0.847786 -0.296537
			-0.495342 -0.842996 -0.209749
			-0.487587 -0.818087 -0.304948
			-0.529477 -0.817320 -0.227251
			-0.120190 -0.905802 -0.406297
			 0.031975 -0.919767 -0.391161
			-0.082488 -0.894499 -0.439394
			-0.075812 -0.893027 -0.443571
			 0.369405 -0.834014 -0.409830
			 0.223264 -0.921894 -0.316645
			-0.073755 -0.946803  0.313247
			 0.074374 -0.949213 -0.305719
			-0.063976 -0.944778  0.321404
			 0.068124 -0.987823  0.139874
			 0.097842 -0.981075 -0.167089
			 0.636428  0.181968 -0.749564
			 0.580975  0.189800 -0.791482
			 0.617860  0.168165 -0.768095
			 0.695734  0.156082 -0.701136
			 0.756454  0.135481 -0.639862
			 0.868716  0.069350 -0.490432
			 0.977558  0.086801 -0.191952
			 0.923746  0.071922 -0.376191
			 0.987623  0.090505 -0.128103
			 0.979066  0.125356  0.160364
			 0.719405  0.088781 -0.688894
			 0.788698  0.059956 -0.611850
			 0.904563  0.144444  0.401125
			 0.731683  0.144979  0.666049
			 0.787217  0.152510  0.597520
			 0.589820  0.148082  0.793841
			-0.535084  0.220609  0.815485
			-0.473840  0.224447  0.851528
			-0.487796  0.270952  0.829843
			-0.528084  0.277976  0.802407
			-0.524362  0.267745  0.808305
			-0.517078  0.260720  0.815264
			-0.430777  0.250239  0.867071
			-0.358959  0.231523  0.904182
			-0.427305  0.236784  0.872550
			-0.358935  0.221092  0.906799
			 0.453274  0.156391  0.877545
			 0.503922  0.144869  0.851514
			 0.442285  0.104384  0.890779
			 0.043925  0.131191  0.990383
			 0.199210  0.092329  0.975598
			-0.090987  0.175055  0.980345
			-0.216549  0.177803  0.959944
			-0.391664  0.168433  0.904561
			-0.459773  0.196358  0.866056
			-0.095642  0.160860  0.982332
			-0.487611  0.112106  0.865834
			-0.543367  0.107682  0.832561
			-0.553744  0.164306  0.816315
			-0.561780  0.104926  0.820606
			-0.261497 -0.720322  0.642461
			-0.448452 -0.441182  0.777335
			-0.535762 -0.502181  0.678802
			-0.575481 -0.316993  0.753882
			-0.570947 -0.099669  0.814914
			-0.555093  0.061713  0.829496
			-0.527926  0.078411  0.845663
			 0.446317 -0.748947 -0.489775
			 0.489221 -0.659596 -0.570611
			 0.625357 -0.459897 -0.630416
			 0.545591 -0.546313 -0.635510
			 0.639648 -0.420025 -0.643762
			 0.652985 -0.319949 -0.686472
			 0.760744 -0.021080 -0.648709
			 0.692445 -0.171121 -0.700883
			 0.727766  0.122996 -0.674706
			 0.673118  0.160159 -0.721984
			 0.651573  0.125781 -0.748086
			 0.113581 -0.954285 -0.276478
			 0.164133 -0.891096 -0.423094
			 0.347479 -0.768764 -0.536899
			 0.308726 -0.819005 -0.483652
			 0.161118 -0.892696 -0.420874
			 0.043845 -0.942120 -0.332398
			-0.215763 -0.867300 -0.448594
			-0.463348 -0.795056 -0.391401
			-0.512938 -0.810559 -0.282645
			-0.512585 -0.823883 -0.241814
			-0.351957 -0.795224 -0.493706
			 0.034844 -0.914637 -0.402773
			-0.066543 -0.938386 -0.339122
			-0.053177 -0.882190 -0.467881
			-0.158309 -0.896238 -0.414363
			-0.176911 -0.893198 -0.413401
			-0.313076 -0.792988 -0.522640
			-0.106252 -0.836948 -0.536870
			-0.384381 -0.748423 -0.540476
			-0.601781 -0.770445 -0.210414
			-0.614894 -0.741874 -0.267448
			-0.479519 -0.656690 -0.582082
			-0.554627 -0.741745 -0.377099
			-0.654699 -0.717907 -0.236598
			-0.668636 -0.681153 -0.298254
			-0.148852 -0.850085 -0.505172
			-0.041215 -0.928277 -0.369598
			-0.185989 -0.922357 -0.338623
			-0.220112 -0.947926 -0.230188
			-0.107625 -0.885188 -0.452614
			 0.321931 -0.837525 -0.441489
			-0.106947 -0.968145 -0.226403
			-0.257551 -0.772319  0.580682
			-0.121620 -0.935236  0.332480
			-0.002348 -0.999402 -0.034509
			 0.591986  0.201497 -0.780354
			 0.502760  0.222738 -0.835237
			 0.469108  0.212511 -0.857191
			 0.523663  0.178198 -0.833080
			 0.587714  0.146434 -0.795707
			 0.671446  0.129192 -0.729705
			 0.837524  0.038207 -0.545063
			 0.910116  0.013171 -0.414145
			 0.983418  0.042461 -0.176315
			 0.989871  0.106278  0.094134
			 0.944886  0.143944  0.294059
			 0.583620  0.100146 -0.805828
			 0.727768  0.057611 -0.683399
			 0.648244  0.042515 -0.760244
			 0.747933  0.032020 -0.663001
			 0.849771  0.149845  0.505406
			 0.650079  0.146368  0.745637
			 0.670965  0.132588  0.729539
			-0.616773  0.247411  0.747248
			-0.675450  0.284338  0.680381
			-0.610433  0.259333  0.748410
			-0.545978  0.271201  0.792690
			-0.593604  0.299835  0.746816
			-0.637655  0.304522  0.707575
			-0.663873  0.309114  0.680971
			-0.634092  0.274340  0.722956
			-0.548118  0.247310  0.799002
			-0.486579  0.222177  0.844913
			 0.589728  0.080452  0.803585
			 0.353081  0.064114  0.933393
			-0.117399  0.143052  0.982728
			-0.024952  0.069568  0.997265
			-0.153272  0.119650  0.980914
			 0.144279  0.050522  0.988246
			-0.264423  0.165096  0.950170
			-0.565117  0.162272  0.808894
			-0.422092  0.155376  0.893138
			-0.573232  0.199186  0.794815
			-0.617834  0.178579  0.765762
			-0.293353  0.146970  0.944639
			-0.611526  0.110412  0.783482
			-0.641697  0.216907  0.735647
			-0.658165  0.145759  0.738630
			-0.597760  0.154153  0.786714
			-0.662004  0.193480  0.724096
			-0.453798 -0.743103  0.491798
			-0.472266 -0.863465  0.177179
			-0.575107 -0.674952  0.462268
			-0.640608 -0.420842  0.642273
			-0.634855 -0.201480  0.745899
			-0.640723 -0.428959  0.636764
			-0.616835 -0.055051  0.785165
			-0.599698  0.056285  0.798245
			 0.469392 -0.630862 -0.617807
			 0.525343 -0.487557 -0.697354
			 0.512986 -0.370394 -0.774373
			 0.698397  0.042171 -0.714467
			 0.600496 -0.168473 -0.781679
			 0.632964  0.214672 -0.743823
			 0.567251  0.246412 -0.785817
			 0.336632 -0.740818 -0.581264
			 0.275096 -0.803949 -0.527245
			 0.183325 -0.861573 -0.473376
			-0.260839 -0.814474 -0.518261
			-0.615412 -0.701568 -0.359265
			-0.512836 -0.695467 -0.503314
			-0.594766 -0.666988 -0.448754
			-0.607600 -0.732385 -0.307302
			-0.352093 -0.730640 -0.584975
			-0.480267 -0.641076 -0.598636
			 0.094456 -0.809964 -0.578823
			 0.169839 -0.777277 -0.605801
			 0.096556 -0.746428 -0.658424
			-0.094770 -0.688369 -0.719143
			-0.041323 -0.531907 -0.845794
			 0.120667 -0.576740 -0.807967
			-0.208845 -0.588412 -0.781125
			-0.352718 -0.493897 -0.794767
			-0.744519 -0.620198 -0.247074
			-0.705088 -0.620712 -0.342881
			-0.757687 -0.571786 -0.314597
			-0.558218 -0.532739 -0.636067
			-0.413546 -0.323434 -0.851099
			-0.690079 -0.565484 -0.451684
			-0.782640 -0.559594 -0.272632
			-0.803974 -0.461701 -0.374778
			-0.206105 -0.820462 -0.533256
			-0.184276 -0.780529 -0.597342
			-0.284556 -0.730707 -0.620560
			-0.223354 -0.955658 -0.191916
			-0.417905 -0.908208 -0.022649
			-0.544933 -0.790081  0.280750
			-0.386986 -0.920775  0.049142
			-0.194319 -0.943238 -0.269336
			-0.306733 -0.920348 -0.242642
			-0.234533 -0.885500 -0.401104
			-0.285076 -0.956210  0.066292
			 0.479509  0.245434 -0.842516
			 0.414768  0.236841 -0.878564
			 0.382425  0.249634 -0.889626
			 0.338453  0.241663 -0.909422
			 0.398081  0.190132 -0.897430
			 0.478025  0.157838 -0.864048
			 0.486951  0.133583 -0.863154
			 0.798268  0.010644 -0.602209
			 0.912059  0.010292 -0.409929
			 0.808007  0.000720 -0.589173
			 0.910366  0.032954 -0.412489
			 0.994130  0.061613 -0.088934
			 0.990240  0.110142  0.085407
			 0.943744  0.115426  0.309877
			 0.416520  0.093682 -0.904287
			 0.493618  0.035867 -0.868939
			 0.704367  0.007631 -0.709795
			 0.571044  0.002518 -0.820916
			 0.796853  0.104377  0.595089
			-0.728847  0.301289  0.614823
			-0.792032  0.322200  0.518529
			-0.718430  0.307811  0.623787
			-0.691423  0.320331  0.647551
			-0.747836  0.330453  0.575797
			-0.777750  0.323812  0.538750
			-0.748571  0.291028  0.595772
			-0.774431  0.254845  0.579061
			-0.672218  0.240749  0.700116
			-0.629527  0.215508  0.746494
			 0.696096  0.074104  0.714114
			 0.490547  0.052438  0.869836
			 0.210233  0.023611  0.977366
			 0.058831  0.040488  0.997447
			-0.197208  0.081436  0.976973
			-0.054645  0.043166  0.997572
			-0.166024  0.054036  0.984640
			-0.348941  0.105319  0.931208
			-0.660490  0.172673  0.730710
			-0.520713  0.139713  0.842222
			-0.728151  0.159221  0.666667
			-0.662228  0.140313  0.736048
			-0.671702  0.189650  0.716135
			-0.739873  0.171408  0.650544
			-0.712658  0.147426  0.685846
			-0.722388  0.225468  0.653697
			-0.768940  0.197628  0.608008
			-0.649643  0.081070  0.755904
			-0.697808  0.153480  0.699649
			-0.641553  0.258152  0.722335
			-0.791391  0.264336  0.551205