<?xml version="1.0"?>
<VTKFile type="PolyData" version="0.1" byte_order="LittleEndian" compressor="vtkZLibDataCompressor">
	<PolyData>
		<Piece NumberOfPoints="625" NumberOfVerts="0" NumberOfLines="0" NumberOfStrips="0" NumberOfPolys="1246">
		<PointData Normals="Normals">
		<DataArray type="Float32" Name="Normals" NumberOfComponents="3" format="ascii">
			 0.137698 -0.983120  0.120474
			-0.102770 -0.941420  0.321197
			-0.356748 -0.928894  0.099427
			 0.114847 -0.987491 -0.108034
			 0.417316 -0.866458  0.274039
			 0.543257 -0.837418  0.060025
			-0.043272 -0.883275  0.466855
			-0.439159 -0.818434  0.370547
			-0.241341 -0.948458 -0.205383
			-0.651606 -0.734391  0.189945
			-0.574335 -0.818463 -0.016029
			 0.491240 -0.854483 -0.168946
			 0.175703 -0.916809 -0.358594
			 0.365607 -0.829218  0.422764
			 0.649417 -0.706221  0.281973
			 0.723628 -0.673673  0.150092
			 0.736254 -0.675543 -0.039646
			 0.113308 -0.830046  0.546063
			-0.332191 -0.782557  0.526550
			-0.590850 -0.698764  0.403268
			-0.155354 -0.890719 -0.427182
			-0.532318 -0.809576 -0.247436
			-0.751265 -0.599994  0.274970
			-0.842766 -0.531711  0.083835
			-0.795670 -0.601072 -0.074980
			 0.537223 -0.779304 -0.322608
			 0.260929 -0.857788 -0.442849
			 0.546781 -0.715947  0.434109
			 0.755592 -0.596077  0.271612
			 0.829617 -0.555668  0.054482
			 0.728594 -0.647917 -0.222158
			 0.850899 -0.518342 -0.085395
			 0.324662 -0.777289  0.538902
			-0.062784 -0.794821  0.603588
			-0.586362 -0.652479  0.480053
			-0.346361 -0.736200  0.581415
			-0.762636 -0.531635  0.368444
			-0.194759 -0.825597 -0.529583
			-0.484994 -0.745366 -0.457397
			-0.759492 -0.596117 -0.260416
			-0.888663 -0.411818  0.201703
			-0.949417 -0.313698  0.014184
			-0.920928 -0.370482 -0.120972
			-0.911586 -0.332521 -0.241744
			 0.628950 -0.677291 -0.381706
			 0.387847 -0.787511 -0.478959
			 0.064341 -0.835178 -0.546204
			 0.595607 -0.665267  0.450191
			 0.849141 -0.527017  0.034818
			 0.843801 -0.484013  0.231800
			 0.676074 -0.576275  0.459163
			 0.785165 -0.521263  0.334367
			 0.908099 -0.407695 -0.095603
			 0.798345 -0.535980 -0.274537
			 0.888169 -0.414659 -0.198027
			 0.221061 -0.781853  0.582956
			-0.088997 -0.739834  0.666877
			-0.562653 -0.630724  0.534424
			-0.770365 -0.493798  0.403363
			-0.299627 -0.700813  0.647368
			-0.902966 -0.354639  0.242658
			-0.570836 -0.606690 -0.553240
			-0.237932 -0.751095 -0.615829
			-0.759227 -0.499745 -0.416928
			-0.968063 -0.241279  0.068106
			-0.971053 -0.189516 -0.145393
			-0.838694 -0.346635 -0.420044
			-0.937499 -0.218633 -0.270730
			 0.470703 -0.716131 -0.515360
			 0.814593 -0.480549 -0.324824
			 0.695616 -0.591032 -0.408411
			 0.121376 -0.769910 -0.626504
			 0.439347 -0.701914  0.560616
			 0.570400 -0.584110  0.577460
			 0.890454 -0.453368  0.039360
			 0.928900 -0.351191 -0.117517
			 0.877944 -0.371964  0.301426
			 0.939255 -0.337060  0.064734
			 0.931971 -0.325372  0.159883
			 0.528043 -0.531433  0.662381
			 0.634338 -0.523379  0.568937
			 0.791058 -0.459691  0.403624
			 0.934228 -0.316303 -0.164835
			 0.958326 -0.256194 -0.126398
			 0.904845 -0.336748 -0.260493
			 0.142042 -0.731570  0.666805
			 0.098808 -0.663848  0.741312
			-0.121173 -0.670677  0.731785
			-0.414398 -0.635240  0.651724
			-0.650402 -0.537475  0.536747
			-0.904866 -0.331678  0.266848
			-0.833290 -0.388945  0.392873
			-0.973739 -0.199578  0.109548
			-0.498584 -0.624638 -0.601034
			-0.775978 -0.424337 -0.466686
			-0.185049 -0.722707 -0.665922
			-0.986654 -0.158988 -0.035160
			-0.981053 -0.125905 -0.147253
			-0.871434 -0.310250 -0.379931
			-0.930525 -0.192873 -0.311326
			-0.964908 -0.134480 -0.225540
			 0.218024 -0.750282 -0.624134
			 0.543073 -0.654963 -0.525447
			 0.863967 -0.377414 -0.333345
			 0.751593 -0.494599 -0.436440
			 0.347745 -0.637950  0.687091
			 0.372217 -0.586182  0.719615
			 0.971914 -0.232793 -0.034495
			 0.861517 -0.294775  0.413396
			 0.924456 -0.245258  0.291942
			 0.958453 -0.247755  0.141371
			 0.381684 -0.538045  0.751548
			 0.557719 -0.430960  0.709382
			 0.467847 -0.456552  0.756756
			 0.736890 -0.427588  0.523604
			 0.943641 -0.251343 -0.215333
			 0.987286 -0.153584 -0.040962
			 0.975418 -0.178044 -0.129848
			 0.902198 -0.271428 -0.335211
			 0.161208 -0.618716  0.768897
			-0.371940 -0.613000  0.697060
			-0.025085 -0.632196  0.774402
			-0.701746 -0.471732  0.533874
			-0.937324 -0.238647  0.253914
			-0.890538 -0.274388  0.362841
			-0.992753 -0.118953 -0.017064
			-0.991829 -0.107061  0.069372
			-0.976868 -0.151667  0.150754
			-0.542831 -0.580065 -0.607338
			-0.717283 -0.449600 -0.532320
			-0.023185 -0.736940 -0.675560
			-0.382513 -0.653035 -0.653627
			-0.993059 -0.100144 -0.061678
			-0.980246 -0.103002 -0.168845
			-0.863476 -0.282222 -0.418043
			-0.934468 -0.153795 -0.321118
			-0.960120 -0.110362 -0.256885
			 0.283336 -0.712328 -0.642114
			 0.548829 -0.616009 -0.565083
			 0.835674 -0.363296 -0.411904
			 0.578566 -0.552967 -0.599574
			 0.710801 -0.472539 -0.521027
			 0.987799 -0.151300  0.036895
			 0.679243 -0.321299  0.659845
			 0.725865 -0.347903  0.593366
			 0.914236 -0.189676  0.358043
			 0.800186 -0.264025  0.538509
			 0.947139 -0.148657  0.284303
			 0.973108 -0.146900  0.177427
			 0.262077 -0.549907  0.793043
			 0.542392 -0.329323  0.772889
			 0.427603 -0.431691  0.794229
			 0.919077 -0.230565 -0.319590
			 0.959436 -0.175138 -0.220930
			 0.993566 -0.082424 -0.077676
			 0.987393 -0.075504  0.139120
			 0.996968 -0.072258  0.028867
			 0.983188 -0.077554 -0.165308
			 0.847669 -0.292638 -0.442516
			 0.890994 -0.190443 -0.412141
			-0.063533 -0.610649  0.789349
			-0.435828 -0.570538  0.696089
			-0.766714 -0.392616  0.507940
			-0.964097 -0.138463  0.226593
			-0.918914 -0.174492  0.353765
			-0.982101 -0.103489  0.157379
			-0.993888 -0.108022  0.022738
			-0.670034 -0.514663 -0.534954
			-0.006960 -0.720452 -0.693470
			-0.312361 -0.691747 -0.651089
			-0.988600 -0.113938 -0.098431
			-0.969814 -0.114545 -0.215268
			-0.817886 -0.356822 -0.451376
			-0.899972 -0.203109 -0.385742
			-0.934894 -0.132857 -0.329122
			-0.943815 -0.120713 -0.307640
			 0.310907 -0.659976 -0.683936
			 0.346325 -0.622893 -0.701472
			 0.511329 -0.571632 -0.641701
			 0.727939 -0.415092 -0.545714
			 0.633684 -0.275045  0.723046
			 0.878889 -0.153193  0.451759
			 0.958194 -0.077534  0.275415
			 0.734785 -0.204215  0.646828
			 0.213460 -0.522885  0.825243
			 0.457183 -0.334566  0.824044
			 0.515226 -0.250218  0.819715
			 0.627563 -0.191669  0.754604
			 0.266455 -0.419598  0.867721
			 0.926317 -0.152740 -0.344393
			 0.959911 -0.077298 -0.269436
			 0.993509  0.017785 -0.112358
			 0.999397  0.033613  0.008770
			 0.980445  0.007384  0.196656
			 0.992765  0.010299  0.119630
			 0.962817  0.009010 -0.270004
			 0.680083 -0.381885 -0.625821
			 0.805711 -0.267227 -0.528601
			 0.825722 -0.204336 -0.525767
			 0.857558 -0.121989 -0.499713
			 0.928402 -0.052961 -0.367785
			 0.916774 -0.070859 -0.393070
			-0.043996 -0.539182  0.841039
			-0.384010 -0.519146  0.763560
			-0.520501 -0.411912  0.747935
			-0.799068 -0.256332  0.543861
			-0.953960 -0.103252  0.281600
			-0.787906 -0.140386  0.599580
			-0.874164 -0.084654  0.478195
			-0.960458 -0.068462  0.269876
			-0.977500 -0.090872  0.190356
			-0.989777 -0.107905  0.093258
			-0.993283 -0.115695  0.001733
			-0.613808 -0.548352 -0.567934
			 0.059892 -0.689002 -0.722281
			-0.253345 -0.670649 -0.697170
			-0.987393 -0.152763 -0.041461
			-0.970737 -0.163420 -0.175964
			-0.951639 -0.144636 -0.271042
			-0.807708 -0.363938 -0.463851
			-0.850886 -0.229576 -0.472534
			-0.913975 -0.153198 -0.375739
			-0.910843 -0.130471 -0.391590
			-0.926433 -0.138793 -0.349941
			-0.051218 -0.639201 -0.767332
			 0.079522 -0.617522 -0.782524
			 0.172083 -0.597746 -0.782999
			 0.485953 -0.513964 -0.706888
			 0.775230 -0.129412  0.618280
			 0.893329 -0.077462  0.442677
			 0.929356 -0.039877  0.367026
			 0.283188 -0.319149  0.904405
			 0.319392 -0.246386  0.915032
			 0.446696 -0.163570  0.879606
			 0.274091 -0.162257  0.947917
			 0.584246 -0.155700  0.796501
			 0.793354 -0.093797  0.601491
			 0.698978 -0.107673  0.706991
			-0.039835 -0.419391  0.906931
			 0.981094  0.166577 -0.098520
			 0.988223  0.152541  0.012093
			 0.972683  0.102609 -0.208227
			 0.984995  0.133974  0.108793
			 0.962658  0.055324  0.265007
			 0.972197  0.146073  0.183017
			 0.930319  0.098530 -0.353268
			 0.941713  0.142258 -0.304858
			 0.255619 -0.548554 -0.796082
			 0.392364 -0.472386 -0.789242
			 0.557175 -0.385789 -0.735339
			 0.672368 -0.273887 -0.687682
			 0.738607 -0.151779 -0.656828
			 0.759757 -0.041234 -0.648898
			 0.845545 -0.009312 -0.533824
			 0.910011  0.032001 -0.413347
			-0.470452 -0.277307  0.837720
			-0.924070 -0.042812  0.379817
			-0.418468 -0.133039  0.898435
			-0.685716 -0.048274  0.726267
			-0.659669  0.008608  0.751507
			-0.826847 -0.029614  0.561647
			-0.910839 -0.013943  0.412527
			-0.947397 -0.056629  0.315011
			-0.964967 -0.124449  0.230980
			-0.987478 -0.129565  0.090005
			-0.494433 -0.582078 -0.645540
			-0.980834 -0.190757  0.039709
			-0.970311 -0.224700 -0.089477
			-0.955797 -0.216064 -0.199420
			-0.944297 -0.191988 -0.267288
			-0.924632 -0.167434 -0.342083
			-0.727425 -0.434385 -0.531190
			-0.692505 -0.358577 -0.625987
			-0.657371 -0.339681 -0.672666
			-0.585827 -0.345628 -0.733040
			-0.828338 -0.242249 -0.505146
			-0.876796 -0.170650 -0.449564
			-0.843239 -0.150945 -0.515910
			-0.844185 -0.125594 -0.521131
			-0.886413 -0.128158 -0.444802
			-0.893900 -0.147557 -0.423284
			-0.393356 -0.538993 -0.744820
			-0.246646 -0.515976 -0.820326
			-0.167930 -0.541343 -0.823861
			 0.821823 -0.062942  0.566256
			 0.915352  0.058635  0.398363
			-0.054468 -0.275874  0.959649
			 0.006026 -0.165310  0.986223
			 0.400917 -0.061768  0.914030
			 0.194935 -0.060579  0.978944
			-0.088438 -0.046946  0.994975
			 0.514298 -0.037808  0.856778
			 0.632768 -0.037237  0.773445
			 0.722159  0.049802  0.689932
			 0.941515  0.270694 -0.200685
			 0.956174  0.290528 -0.036397
			 0.955753  0.286407  0.067130
			 0.952849  0.275073  0.128115
			 0.921999  0.195162  0.334410
			 0.928064  0.270425  0.256059
			 0.858835  0.127492 -0.496132
			 0.913804  0.259620 -0.312345
			 0.884186  0.272815 -0.379192
			 0.876129  0.207268 -0.435244
			-0.022864 -0.511513 -0.858971
			 0.288143 -0.471143 -0.833665
			 0.239098 -0.410389 -0.880008
			 0.358929 -0.238650 -0.902339
			 0.491364 -0.160668 -0.856007
			 0.561952 -0.083329 -0.822962
			 0.613865  0.027871 -0.788919
			 0.759542  0.108026 -0.641425
			-0.807270  0.020950  0.589810
			-0.378575 -0.019390  0.925367
			-0.365062  0.054986  0.929358
			-0.586296  0.053613  0.808321
			-0.815047  0.050204  0.577215
			-0.884357 -0.007278  0.466754
			-0.920138 -0.069218  0.385428
			-0.976780 -0.168510  0.132306
			-0.962850 -0.214134  0.164516
			-0.925822 -0.151843  0.346117
			-0.966256 -0.256313  0.025551
			-0.960902 -0.269932 -0.061678
			-0.953461 -0.244026 -0.177098
			-0.937114 -0.232776 -0.260062
			-0.900941 -0.221914 -0.372907
			-0.882770 -0.158975 -0.442090
			-0.569269 -0.410655 -0.712247
			-0.754790 -0.287527 -0.589594
			-0.750349 -0.250613 -0.611694
			-0.679294 -0.233249 -0.695812
			-0.732749 -0.145398 -0.664784
			-0.685241 -0.113695 -0.719387
			-0.797190 -0.114178 -0.592834
			-0.826426 -0.109735 -0.552248
			-0.846129 -0.127635 -0.517470
			-0.488761 -0.423815 -0.762557
			 0.820952  0.064129  0.567385
			 0.823086  0.205263  0.529524
			 0.342363  0.073968  0.936652
			 0.144076  0.054017  0.988091
			-0.088933  0.046528  0.994950
			 0.488143  0.099396  0.867085
			 0.631685  0.116961  0.766351
			 0.705797  0.234232  0.668571
			 0.917110  0.383616 -0.108388
			 0.886422  0.411138 -0.212655
			 0.912102  0.409777  0.012396
			 0.905027  0.418077  0.078341
			 0.919771  0.324578  0.220615
			 0.834931  0.294302  0.465055
			 0.779159  0.224342 -0.585305
			 0.869350  0.381278 -0.314418
			 0.811051  0.313970 -0.493578
			 0.816425  0.413055 -0.403529
			-0.497439 -0.386549 -0.776617
			-0.320141 -0.414853 -0.851708
			-0.169499 -0.297702 -0.939491
			-0.056732 -0.161379 -0.985261
			 0.146924 -0.127690 -0.980871
			 0.329933 -0.028602 -0.943571
			 0.388296  0.093073 -0.916823
			 0.612500  0.152623 -0.775597
			 0.652247  0.256255 -0.713377
			-0.715276  0.065343  0.695780
			-0.117077  0.123264  0.985444
			-0.397949  0.086348  0.913335
			-0.628247  0.103085  0.771155
			-0.762594  0.052966  0.644706
			-0.842268 -0.002357  0.539054
			-0.870174 -0.059213  0.489174
			-0.927348 -0.252249  0.276400
			-0.952384 -0.290730  0.091874
			-0.873401 -0.085280  0.479476
			-0.886401 -0.143361  0.440160
			-0.966285 -0.251695  0.054247
			-0.974425 -0.223416 -0.024104
			-0.960996 -0.232501 -0.149764
			-0.946309 -0.220138 -0.236727
			-0.930009 -0.222805 -0.292304
			-0.843149 -0.175475 -0.508241
			-0.838243 -0.147747 -0.524900
			-0.841917 -0.083717 -0.533073
			-0.924459 -0.154369 -0.348634
			-0.859246 -0.188330 -0.475635
			-0.781716 -0.097985 -0.615889
			-0.533670 -0.210418 -0.819097
			-0.435726 -0.147641 -0.887888
			-0.402958 -0.085159 -0.911248
			-0.339910 -0.040332 -0.939593
			-0.570028 -0.059371 -0.819477
			-0.715946 -0.042047 -0.696888
			-0.708485 -0.057371 -0.703391
			-0.674747  0.017471 -0.737842
			 0.147229  0.142506  0.978783
			 0.312687  0.210846  0.926159
			 0.501207  0.226218  0.835235
			 0.532793  0.331769  0.778499
			 0.653605  0.346614  0.672800
			 0.867565  0.491351 -0.076842
			 0.820955  0.551481 -0.147987
			 0.822350  0.516016 -0.239725
			 0.852311  0.522749  0.017278
			 0.888360  0.443319  0.119518
			 0.821115  0.566969  0.065699
			 0.794579  0.599771  0.094441
			 0.835249  0.400792  0.376464
			 0.854899  0.441588  0.272301
			 0.722430  0.410589  0.556337
			 0.633424  0.386497  0.670369
			 0.673984  0.328583 -0.661648
			 0.728330  0.400834 -0.555758
			 0.674226  0.466347 -0.572661
			 0.788471  0.502257 -0.355037
			-0.082941 -0.097669 -0.991757
			 0.015740  0.007902 -0.999845
			 0.471834  0.235951 -0.849529
			 0.152653  0.116172 -0.981428
			 0.480807  0.362956 -0.798177
			 0.094723  0.206430  0.973866
			-0.041591  0.224152  0.973666
			-0.248742  0.160688  0.955148
			-0.456256  0.128601  0.880507
			-0.452683  0.188603  0.871497
			-0.592752  0.143156  0.792560
			-0.719345  0.081290  0.689880
			-0.761801  0.058174  0.645194
			-0.800618  0.014253  0.599006
			-0.939914 -0.281204  0.193611
			-0.913023 -0.206105  0.352009
			-0.808294 -0.005398  0.588755
			-0.829680 -0.024115  0.557718
			-0.875389 -0.070806  0.478206
			-0.957130 -0.195228  0.213983
			-0.977109 -0.109400  0.182453
			-0.987180 -0.159056  0.013283
			-0.976899 -0.137480 -0.163610
			-0.960163 -0.148489 -0.236724
			-0.951696 -0.103431 -0.289098
			-0.663940 -0.099516 -0.741135
			-0.758679 -0.094646 -0.644553
			-0.766557  0.019077 -0.641893
			-0.677914  0.159184 -0.717700
			-0.798253  0.054980 -0.599808
			-0.708014  0.094778 -0.699809
			-0.605675  0.343025 -0.717978
			-0.828770 -0.039696 -0.558180
			-0.888143  0.076560 -0.453145
			-0.860541  0.215387 -0.461604
			-0.833589  0.106300 -0.542060
			-0.603010 -0.001628 -0.797732
			-0.443697  0.074633 -0.893064
			-0.238692  0.038199 -0.970344
			-0.459887  0.035236 -0.887278
			-0.092319  0.157815 -0.983144
			-0.381818  0.163772 -0.909612
			-0.301014  0.185560 -0.935392
			 0.365866  0.322988  0.872824
			 0.163650  0.288972  0.943247
			 0.439149  0.464008  0.769314
			 0.792206  0.608749 -0.042836
			 0.731403  0.673853 -0.104748
			 0.735027  0.642670 -0.216126
			 0.756806  0.652598  0.036888
			 0.795736  0.572156  0.198599
			 0.703670  0.703331  0.100867
			 0.689882  0.690709  0.216760
			 0.637638  0.751244  0.170442
			 0.661685  0.567749  0.489728
			 0.699462  0.617225  0.360258
			 0.509776  0.554052  0.658146
			 0.575730  0.420913 -0.700976
			 0.420306  0.463024 -0.780354
			 0.499714  0.511916 -0.698733
			 0.541754  0.622536 -0.564757
			 0.702940  0.583853 -0.406191
			 0.303848  0.272466 -0.912928
			 0.121901  0.326272 -0.937383
			 0.228457  0.381069 -0.895876
			-0.232074  0.246167  0.941033
			-0.078186  0.304487  0.949302
			-0.364253  0.257690  0.894939
			-0.585607  0.172098  0.792116
			-0.649418  0.144861  0.746506
			-0.926037 -0.104260  0.362748
			-0.728617  0.111981  0.675705
			-0.794767  0.111075  0.596664
			-0.852334  0.070607  0.518209
			-0.934591  0.019309  0.355200
			-0.864808  0.170034  0.472436
			-0.954197 -0.049858  0.294996
			-0.976820  0.114065  0.181139
			-0.937726  0.305649  0.165069
			-0.998161  0.048055  0.036957
			-0.974562  0.221207 -0.035998
			-0.946466  0.264149 -0.185546
			-0.969010  0.113982 -0.219151
			-0.954378  0.088852 -0.285077
			-0.917775  0.080405 -0.388876
			-0.914725  0.219097 -0.339522
			-0.887247  0.336080 -0.315979
			-0.564893  0.110323 -0.817756
			-0.308223  0.121556 -0.943516
			-0.462888  0.321964 -0.825878
			-0.370801  0.492745 -0.787216
			-0.567334  0.366372 -0.737499
			-0.358007  0.549325 -0.755032
			-0.128195  0.691086 -0.711313
			-0.689155  0.444922 -0.571935
			-0.538944  0.588506 -0.602661
			-0.591188  0.498160 -0.634297
			 0.089495  0.327581 -0.940575
			 0.288366  0.394403  0.872520
			 0.095770  0.374947  0.922086
			 0.409483  0.675105  0.613643
			 0.213121  0.478967  0.851569
			 0.354994  0.571086  0.740162
			 0.695771  0.718195  0.009898
			 0.632773  0.773923 -0.025323
			 0.535172  0.843876 -0.038266
			 0.620313  0.777399 -0.104220
			 0.533052  0.814147 -0.230261
			 0.548686  0.747052 -0.375308
			 0.625757  0.775289  0.085761
			 0.545063  0.823614  0.156738
			 0.554167  0.763912  0.330661
			 0.480432  0.839379  0.254220
			 0.503470  0.710008  0.492349
			 0.276890  0.493255 -0.824640
			 0.309317  0.634026 -0.708755
			 0.234007  0.652239 -0.720989
			 0.328026  0.768323 -0.549617
			-0.101895  0.354386  0.929531
			-0.413783  0.254202  0.874165
			-0.401209  0.334151  0.852862
			-0.556457  0.267736  0.786558
			-0.665493  0.303255  0.682024
			-0.711768  0.309285  0.630658
			-0.776726  0.292939  0.557569
			-0.631478  0.472589  0.614732
			-0.677121  0.454606  0.578654
			-0.813365  0.277357  0.511382
			-0.862319  0.318584  0.393586
			-0.760246  0.576319  0.299804
			-0.578097  0.778739  0.243660
			-0.789972  0.585652  0.181539
			-0.743685  0.668076  0.024637
			-0.711753  0.699819 -0.060513
			-0.893878  0.415264 -0.168930
			-0.822748  0.515623 -0.239205
			-0.782244  0.517350 -0.347051
			-0.781857  0.467240 -0.412780
			-0.650709  0.652088 -0.389049
			-0.496941  0.762758 -0.413823
			-0.186637  0.329867 -0.925394
			-0.004566  0.495397 -0.868655
			-0.027049  0.642404 -0.765888
			-0.210186  0.741268 -0.637451
			-0.055969  0.774910 -0.629589
			 0.136705  0.780625 -0.609867
			-0.335636  0.769653 -0.543123
			-0.097925  0.828884 -0.550783
			 0.236707  0.651414  0.720853
			 0.422982  0.813109  0.399925
			 0.330672  0.773094  0.541278
			 0.070893  0.499110  0.863634
			 0.536601  0.841065  0.068332
			 0.433446  0.900049  0.045124
			 0.373974  0.927357 -0.012345
			 0.423488  0.895239 -0.138581
			 0.307202  0.866892 -0.392588
			 0.474408  0.869784  0.135694
			 0.395591  0.892637  0.216119
			-0.204496  0.388011  0.898682
			-0.055096  0.567956  0.821213
			-0.253206  0.514338  0.819355
			-0.477938  0.466462  0.744304
			-0.488162  0.582149  0.650231
			-0.285459  0.718481  0.634269
			-0.491899  0.629708  0.601252
			-0.524424  0.710365  0.469426
			-0.614445  0.647138  0.451298
			-0.469046  0.822162  0.322561
			-0.237090  0.943852  0.230067
			-0.398684  0.904023  0.154252
			-0.269536  0.960107  0.074460
			-0.540840  0.839630 -0.050130
			-0.509134  0.837431 -0.198727
			-0.393426  0.876790 -0.276505
			-0.219195  0.914271 -0.340679
			-0.122524  0.900004 -0.418307
			 0.092795  0.872208 -0.480252
			 0.126636  0.920800 -0.368904
			 0.090854  0.725385  0.682321
			 0.369088  0.860246  0.351781
			 0.220122  0.840821  0.494536
			 0.375456  0.919116  0.119414
			 0.288007  0.953906  0.084356
			 0.274903  0.935686 -0.221179
			 0.278558  0.947208 -0.158754
			 0.265893  0.963143 -0.040699
			 0.265117  0.913590 -0.308328
			 0.281311  0.943711  0.173995
			 0.295649  0.909207  0.293145
			-0.219203  0.673980  0.705479
			-0.094560  0.777226  0.622075
			 0.073671  0.864922  0.496470
			 0.084010  0.886189  0.455645
			-0.224442  0.798113  0.559143
			-0.342720  0.838416  0.423793
			-0.338349  0.889192  0.307991
			-0.000709  0.978828  0.204682
			 0.050821  0.978865  0.198094
			-0.102018  0.983156  0.151649
			 0.044492  0.995929  0.078399
			-0.170283  0.985002 -0.027847
			-0.109328  0.982910 -0.148107
			 0.076337  0.984192 -0.159808
			 0.097591  0.961598 -0.256525
			 0.160566  0.977659  0.135654
			 0.117317  0.992986  0.014694
			 0.180563  0.954321  0.238050
			-0.042148  0.925503  0.376388
			-0.111319  0.960445  0.255252
		</DataArray>
	</PointData>
	<Points>
		<DataArray type="Float32" NumberOfComponents="3" format="ascii">
			-0.000721 -0.001477  0.001266
			-0.001104 -0.001317  0.001941
			-0.001673 -0.001307  0.001059
			-0.000737 -0.001459  0.000353
			-0.000100 -0.001015  0.002132
			 0.000178 -0.001097  0.000939
			-0.000919 -0.000854  0.002944
			-0.001892 -0.000785  0.002447
			-0.001618 -0.001272 -0.000215
			-0.002837 -0.000422  0.001531
			-0.002446 -0.000947  0.000302
			 0.000155 -0.001078 -0.000095
			-0.000582 -0.001123 -0.000782
			-0.000018 -0.000593  0.003176
			 0.000825 -0.000063  0.002957
			 0.001211  0.000023  0.001861
			 0.001321 -0.000040  0.000137
			-0.000473 -0.000176  0.004027
			-0.001707  0.000144  0.004136
			-0.002799  0.000297  0.003285
			-0.001516 -0.000852 -0.001383
			-0.002470 -0.000756 -0.000720
			-0.003513  0.000611  0.002552
			-0.003776  0.000611  0.001396
			-0.003288 -0.000069  0.000064
			 0.000615 -0.000394 -0.001182
			-0.000292 -0.000324 -0.002202
			 0.000657  0.000352  0.003999
			 0.002352  0.002123  0.003733
			 0.002613  0.001761  0.001269
			 0.001699  0.000617 -0.001341
			 0.002641  0.001821 -0.000672
			 0.000097  0.000547  0.004880
			-0.000839  0.000709  0.005263
			-0.002833  0.001606  0.005157
			-0.001896  0.001581  0.005983
			-0.003656  0.001767  0.004095
			-0.001463 -0.000201 -0.002538
			-0.002416 -0.000309 -0.001777
			-0.003095 -0.000066 -0.001098
			-0.004152  0.001791  0.002756
			-0.004336  0.001837  0.001510
			-0.004032  0.001153  0.000440
			-0.003732  0.001219 -0.000961
			 0.001302  0.001105 -0.002971
			 0.000216  0.000523 -0.003420
			-0.000621  0.000139 -0.003218
			 0.001089  0.001662  0.005442
			 0.003877  0.003813  0.002319
			 0.004323  0.004944  0.003914
			 0.002465  0.003876  0.006402
			 0.003642  0.004651  0.005356
			 0.003997  0.004388  0.000057
			 0.002436  0.001983 -0.002231
			 0.003477  0.003921 -0.002203
			 0.000004  0.001278  0.005897
			-0.000957  0.002032  0.006822
			-0.002788  0.003024  0.007025
			-0.003783  0.003710  0.006364
			-0.001978  0.002816  0.007410
			-0.004435  0.003640  0.004585
			-0.002413  0.000600 -0.002893
			-0.001302  0.000597 -0.003687
			-0.003092  0.000409 -0.001859
			-0.004719  0.003541  0.002773
			-0.004541  0.003227  0.000594
			-0.003322  0.001446 -0.002353
			-0.004025  0.003799 -0.002110
			 0.000819  0.001624 -0.004504
			 0.002765  0.003776 -0.004194
			 0.001783  0.002779 -0.004887
			-0.000251  0.000976 -0.004239
			 0.000571  0.001900  0.006425
			 0.001179  0.002966  0.006990
			 0.004629  0.005024  0.002853
			 0.004877  0.005911  0.001830
			 0.004812  0.007009  0.005574
			 0.005058  0.006132  0.003121
			 0.005234  0.006988  0.004039
			 0.001692  0.005036  0.008365
			 0.002968  0.005751  0.007870
			 0.003806  0.006077  0.006911
			 0.004517  0.006523 -0.002136
			 0.005391  0.008646 -0.000337
			 0.004013  0.006558 -0.004300
			-0.000040  0.001981  0.006802
			-0.000335  0.003001  0.007805
			-0.001494  0.003883  0.008577
			-0.002492  0.004028  0.008378
			-0.003329  0.004946  0.008484
			-0.004618  0.005482  0.006482
			-0.004242  0.006272  0.008330
			-0.005160  0.006584  0.005035
			-0.001945  0.001283 -0.004088
			-0.002858  0.002141 -0.003734
			-0.000967  0.001704 -0.005023
			-0.005109  0.005507  0.002417
			-0.005098  0.007163  0.000481
			-0.003347  0.003765 -0.004194
			-0.003885  0.005461 -0.003931
			-0.004596  0.007715 -0.002561
			 0.000254  0.002135 -0.005489
			 0.001294  0.003100 -0.005970
			 0.003386  0.006408 -0.006095
			 0.002321  0.005010 -0.006754
			 0.000415  0.002559  0.007215
			 0.000522  0.003776  0.008174
			 0.005687  0.008530  0.002653
			 0.004654  0.008939  0.007728
			 0.005532  0.009422  0.005980
			 0.005720  0.008930  0.004570
			 0.000483  0.005318  0.009382
			 0.002752  0.007392  0.009236
			 0.001082  0.007124  0.010205
			 0.003691  0.007095  0.008166
			 0.005154  0.010125 -0.004062
			 0.006401  0.012713  0.001316
			 0.006181  0.013229 -0.002227
			 0.004094  0.009620 -0.007125
			-0.000468  0.004588  0.009172
			-0.002516  0.005764  0.009923
			-0.001408  0.005527  0.010030
			-0.003641  0.007195  0.010205
			-0.004976  0.007801  0.007724
			-0.004515  0.008914  0.009971
			-0.005482  0.008146  0.003270
			-0.005705  0.010873  0.005715
			-0.005392  0.008989  0.006943
			-0.001945  0.002128 -0.004924
			-0.002472  0.003246 -0.005313
			-0.000270  0.002686 -0.006217
			-0.001268  0.003009 -0.006234
			-0.005777  0.011485  0.002520
			-0.005387  0.011653 -0.000821
			-0.003069  0.005225 -0.005741
			-0.003917  0.007871 -0.005026
			-0.004650  0.011447 -0.004089
			 0.000635  0.003344 -0.006754
			 0.001445  0.004250 -0.007196
			 0.003126  0.007633 -0.007913
			 0.001650  0.005466 -0.008198
			 0.002216  0.007307 -0.009174
			 0.006216  0.011089  0.003664
			 0.003629  0.009385  0.009532
			 0.003780  0.008051  0.008738
			 0.005299  0.011844  0.008161
			 0.004542  0.011128  0.009302
			 0.005772  0.011665  0.006572
			 0.006078  0.011050  0.005105
			-0.000494  0.006590  0.010660
			 0.001883  0.010259  0.011253
			 0.000002  0.008755  0.011779
			 0.005044  0.012699 -0.006915
			 0.005851  0.014240 -0.005280
			 0.006802  0.016639 -0.000887
			 0.006451  0.014383  0.004479
			 0.006884  0.016426  0.001781
			 0.006445  0.017001 -0.004043
			 0.002980  0.010054 -0.009988
			 0.004059  0.014300 -0.010070
			-0.001834  0.007104  0.011265
			-0.002903  0.007957  0.011604
			-0.003786  0.009559  0.011972
			-0.005286  0.011138  0.008847
			-0.004545  0.011883  0.011755
			-0.005910  0.015309  0.007950
			-0.006182  0.015112  0.004755
			-0.002008  0.004237 -0.006785
			-0.000152  0.003713 -0.007302
			-0.000997  0.004227 -0.007668
			-0.006175  0.016531  0.001324
			-0.005430  0.016131 -0.002931
			-0.002397  0.005563 -0.007354
			-0.002963  0.007727 -0.007419
			-0.003816  0.010640 -0.006503
			-0.004224  0.015200 -0.006949
			 0.000817  0.004618 -0.007987
			 0.000906  0.006359 -0.009489
			 0.001588  0.007882 -0.010452
			 0.002144  0.008886 -0.010696
			 0.003597  0.011422  0.010479
			 0.005086  0.013280  0.009269
			 0.005806  0.014765  0.007677
			 0.004303  0.012767  0.010277
			-0.001180  0.008189  0.011981
			-0.000033  0.010885  0.012815
			 0.000492  0.013676  0.013441
			 0.003164  0.014226  0.011631
			-0.001224  0.009877  0.012918
			 0.005361  0.015279 -0.007608
			 0.005941  0.016985 -0.006489
			 0.006740  0.020348 -0.002750
			 0.006954  0.019513  0.000718
			 0.006300  0.018761  0.006216
			 0.006822  0.018311  0.003315
			 0.006033  0.020076 -0.006330
			 0.001912  0.010282 -0.011865
			 0.002550  0.012443 -0.012125
			 0.002816  0.014757 -0.012780
			 0.003293  0.017116 -0.012725
			 0.005190  0.017963 -0.008725
			 0.004233  0.018703 -0.011187
			-0.002164  0.008848  0.012511
			-0.003014  0.009479  0.012745
			-0.003371  0.010531  0.013208
			-0.003879  0.011304  0.013038
			-0.005239  0.014711  0.010805
			-0.003946  0.013012  0.013480
			-0.004501  0.015052  0.012901
			-0.005666  0.017980  0.010261
			-0.006294  0.019493  0.008097
			-0.006420  0.017965  0.006235
			-0.006562  0.018468  0.004195
			-0.001636  0.005080 -0.008079
			-0.000077  0.004931 -0.008528
			-0.000884  0.005117 -0.008665
			-0.006867  0.021173  0.002568
			-0.006426  0.021469 -0.001559
			-0.005254  0.020381 -0.005830
			-0.002063  0.006337 -0.008536
			-0.002076  0.008004 -0.009527
			-0.002939  0.011417 -0.009093
			-0.002952  0.016226 -0.010818
			-0.004055  0.020129 -0.009413
			-0.000417  0.006114 -0.009591
			 0.000177  0.006960 -0.010275
			 0.000691  0.008041 -0.010994
			 0.001537  0.008919 -0.011347
			 0.004582  0.014384  0.010360
			 0.005234  0.015407  0.009513
			 0.005505  0.018167  0.009183
			-0.001282  0.012160  0.013867
			-0.000944  0.013750  0.014295
			 0.000230  0.016278  0.014312
			-0.000829  0.015235  0.014549
			 0.001748  0.017105  0.013467
			 0.004557  0.016621  0.010742
			 0.003515  0.018100  0.012156
			-0.002473  0.010698  0.013514
			 0.006520  0.023228 -0.003078
			 0.006681  0.022649 -0.000410
			 0.006335  0.022445 -0.004904
			 0.006544  0.021800  0.003332
			 0.005808  0.020785  0.008385
			 0.005987  0.022444  0.006755
			 0.004702  0.022048 -0.009801
			 0.005693  0.023068 -0.006912
			 0.000991  0.009632 -0.012103
			 0.001233  0.010588 -0.012675
			 0.001474  0.011681 -0.013080
			 0.001638  0.013792 -0.013916
			 0.002226  0.016309 -0.014079
			 0.002529  0.018819 -0.014106
			 0.003469  0.019856 -0.012874
			 0.004102  0.020714 -0.011746
			-0.003302  0.011868  0.013814
			-0.005018  0.017257  0.012134
			-0.003156  0.013608  0.014276
			-0.003766  0.014837  0.013975
			-0.003873  0.017145  0.013853
			-0.004546  0.017071  0.013138
			-0.005243  0.019947  0.011731
			-0.005939  0.021233  0.010004
			-0.006713  0.023061  0.007801
			-0.006809  0.021148  0.005657
			-0.001338  0.005857 -0.009094
			-0.007334  0.023807  0.004216
			-0.007516  0.025031  0.001183
			-0.007121  0.025617 -0.002233
			-0.006159  0.024812 -0.005360